<?xml version="1.0"?>
<VTKFile type="UnstructuredGrid" version="0.1" byte_order="LittleEndian">
<!--This file was created by meshio v5.3.5-->
<UnstructuredGrid>
<Piece NumberOfPoints="164" NumberOfCells="256">
<Points>
<DataArray type="Float64" Name="Points" NumberOfComponents="3" format="ascii">
-3.62777204087e+01
5.93338573254e+02
-3.00000000000e+03
-8.19500009019e+01
7.40929074508e+02
-2.82410848990e+03
-2.12013651697e+02
8.66050259858e+02
-2.67499486775e+03
-4.06667660990e+02
9.49653563059e+02
-2.57536033081e+03
-6.36277720409e+02
9.79011139066e+02
-2.54037333413e+03
-8.65887779828e+02
9.49653563059e+02
-2.57536033081e+03
-1.06054178912e+03
8.66050259858e+02
-2.67499486775e+03
-1.19060543992e+03
7.40929074508e+02
-2.82410848990e+03
-1.23627772041e+03
5.93338573254e+02
-3.00000000000e+03
-1.19060543992e+03
4.45748072000e+02
-3.17589151010e+03
-1.06054178912e+03
3.20626886651e+02
-3.32500513225e+03
-8.65887779828e+02
2.37023583450e+02
-3.42463966919e+03
-6.36277720409e+02
2.07666007442e+02
-3.45962666587e+03
-4.06667660990e+02
2.37023583450e+02
-3.42463966919e+03
-2.12013651697e+02
3.20626886651e+02
-3.32500513225e+03
-8.19500009019e+01
4.45748072000e+02
-3.17589151010e+03
-9.82301878795e+02
6.57836979237e+02
-2.92313379295e+03
-2.35388105079e+02
5.41264947208e+02
-3.06205893092e+03
-5.69871316028e+02
8.40374504474e+02
-2.70559404147e+03
-7.11529394962e+02
3.50161918889e+02
-3.28980665147e+03
-4.01907468113e+02
3.68697219987e+02
-3.26771713980e+03
-3.01147993968e+02
7.32392613644e+02
-2.83428184780e+03
-8.72831799617e+02
8.02387168171e+02
-2.75086558598e+03
-9.56998297522e+02
4.55590063739e+02
-3.16416228109e+03
-3.83495241035e+02
8.36515227620e+02
-2.71019334853e+03
-5.24957334276e+02
6.99549662937e+02
-2.87342255230e+03
-3.68806365849e+02
6.08303991849e+02
-2.98216490863e+03
-5.60624169490e+02
5.42627281744e+02
-3.06043536384e+03
-7.57039155452e+02
6.08228297855e+02
-2.98225511721e+03
-7.59403827432e+02
4.72412129709e+02
-3.14411452353e+03
-7.22504460330e+02
7.28377464595e+02
-2.83906691610e+03
-2.64377961448e+02
4.33055503539e+02
-3.19101792417e+03
-8.89060199783e+02
3.50161918889e+02
-3.28980665147e+03
-7.33474615242e+02
8.59960767873e+02
-2.68225204170e+03
-1.02657022686e+03
7.66800870444e+02
-2.79327568415e+03
-1.06255581105e+03
5.40549452857e+02
-3.06291162388e+03
-1.90023907337e+02
6.50395874092e+02
-2.93200175674e+03
-5.47512317998e+02
3.06492151437e+02
-3.34185025372e+03
-5.83826678727e+02
4.23842427026e+02
-3.20199764120e+03
-9.03659794049e+02
5.46923384679e+02
-3.05531546774e+03
-4.02488458118e+02
4.86298561892e+02
-3.12756531809e+03
-3.62777204087e+01
5.93338573254e+02
-3.00000000000e+03
-8.19500009019e+01
7.40929074508e+02
-2.82410848990e+03
-2.12013651697e+02
8.66050259858e+02
-2.67499486775e+03
-4.06667660990e+02
9.49653563059e+02
-2.57536033081e+03
-6.36277720409e+02
9.79011139066e+02
-2.54037333413e+03
-8.65887779828e+02
9.49653563059e+02
-2.57536033081e+03
-1.06054178912e+03
8.66050259858e+02
-2.67499486775e+03
-1.19060543992e+03
7.40929074508e+02
-2.82410848990e+03
-1.23627772041e+03
5.93338573254e+02
-3.00000000000e+03
-1.19060543992e+03
4.45748072000e+02
-3.17589151010e+03
-1.06054178912e+03
3.20626886651e+02
-3.32500513225e+03
-8.65887779828e+02
2.37023583450e+02
-3.42463966919e+03
-6.36277720409e+02
2.07666007442e+02
-3.45962666587e+03
-4.06667660990e+02
2.37023583450e+02
-3.42463966919e+03
-2.12013651697e+02
3.20626886651e+02
-3.32500513225e+03
-8.19500009019e+01
4.45748072000e+02
-3.17589151010e+03
-9.82301878795e+02
6.57836979237e+02
-2.92313379295e+03
-2.35388105079e+02
5.41264947208e+02
-3.06205893092e+03
-5.69871316028e+02
8.40374504474e+02
-2.70559404147e+03
-7.11529394962e+02
3.50161918889e+02
-3.28980665147e+03
-4.01907468113e+02
3.68697219987e+02
-3.26771713980e+03
-3.01147993968e+02
7.32392613644e+02
-2.83428184780e+03
-8.72831799617e+02
8.02387168171e+02
-2.75086558598e+03
-9.56998297522e+02
4.55590063739e+02
-3.16416228109e+03
-3.83495241035e+02
8.36515227620e+02
-2.71019334853e+03
-5.24957334276e+02
6.99549662937e+02
-2.87342255230e+03
-3.68806365849e+02
6.08303991849e+02
-2.98216490863e+03
-5.60624169490e+02
5.42627281744e+02
-3.06043536384e+03
-7.57039155452e+02
6.08228297855e+02
-2.98225511721e+03
-7.59403827432e+02
4.72412129709e+02
-3.14411452353e+03
-7.22504460330e+02
7.28377464595e+02
-2.83906691610e+03
-2.64377961448e+02
4.33055503539e+02
-3.19101792417e+03
-8.89060199783e+02
3.50161918889e+02
-3.28980665147e+03
-7.33474615242e+02
8.59960767873e+02
-2.68225204170e+03
-1.02657022686e+03
7.66800870444e+02
-2.79327568415e+03
-1.06255581105e+03
5.40549452857e+02
-3.06291162388e+03
-1.90023907337e+02
6.50395874092e+02
-2.93200175674e+03
-5.47512317998e+02
3.06492151437e+02
-3.34185025372e+03
-5.83826678727e+02
4.23842427026e+02
-3.20199764120e+03
-9.03659794049e+02
5.46923384679e+02
-3.05531546774e+03
-4.02488458118e+02
4.86298561892e+02
-3.12756531809e+03
1.39247167980e+02
4.29658966839e+02
-3.00000000000e+03
9.35748874867e+01
5.77249468093e+02
-2.82410848990e+03
-3.64887633081e+01
7.02370653443e+02
-2.67499486775e+03
-2.31142772601e+02
7.85973956644e+02
-2.57536033081e+03
-4.60752832020e+02
8.15331532651e+02
-2.54037333413e+03
-6.90362891439e+02
7.85973956644e+02
-2.57536033081e+03
-8.85016900732e+02
7.02370653443e+02
-2.67499486775e+03
-1.01508055153e+03
5.77249468093e+02
-2.82410848990e+03
-1.06075283202e+03
4.29658966839e+02
-3.00000000000e+03
-1.01508055153e+03
2.82068465585e+02
-3.17589151010e+03
-8.85016900732e+02
1.56947280236e+02
-3.32500513225e+03
-6.90362891439e+02
7.33439770346e+01
-3.42463966919e+03
-4.60752832020e+02
4.39864010275e+01
-3.45962666587e+03
-2.31142772601e+02
7.33439770346e+01
-3.42463966919e+03
-3.64887633081e+01
1.56947280236e+02
-3.32500513225e+03
9.35748874867e+01
2.82068465585e+02
-3.17589151010e+03
-3.85501157466e+02
1.86482312474e+02
-3.28980665147e+03
-5.42147648576e+02
6.95030235725e+02
-2.68374283693e+03
-8.39068547352e+02
3.81288122828e+02
-3.05764612713e+03
-7.08121434506e+01
4.83655900143e+02
-2.93564896075e+03
-7.81473409133e+02
5.67407476355e+02
-2.83583771891e+03
-6.34476559427e+02
2.26776986862e+02
-3.24178532851e+03
-2.34565328910e+02
6.48692719502e+02
-2.73896573837e+03
-1.42041358264e+02
2.85161188911e+02
-3.17220574597e+03
-1.44990189488e+01
3.72601666001e+02
-3.06799824326e+03
-2.65198556211e+02
4.05153668847e+02
-3.02920427692e+03
-2.55159122143e+02
5.40647758235e+02
-2.86772870912e+03
-4.63043301905e+02
4.99903277397e+02
-2.91628609053e+03
-5.29764428503e+02
3.64241917225e+02
-3.07796100389e+03
-6.80842827495e+02
4.59203661243e+02
-2.96479000430e+03
-3.76782071951e+02
3.02472868463e+02
-3.15157448967e+03
-8.24371166880e+01
5.92144412527e+02
-2.80635738636e+03
-7.13535311394e+02
6.72835621205e+02
-2.71019334853e+03
-3.74101443840e+02
7.12031896534e+02
-2.66348104659e+03
-9.07006645091e+02
4.86716267677e+02
-2.93200175674e+03
-8.20248311744e+02
2.73234816746e+02
-3.18641904284e+03
-2.26842404126e+02
1.96767464581e+02
-3.27754928450e+03
-5.42773360088e+02
1.32647419350e+02
-3.35396457876e+03
-6.10120761438e+02
5.73350861291e+02
-2.82875466856e+03
-7.00880134904e+02
3.40949100981e+02
-3.10572030134e+03
-4.13189601135e+02
6.11609458114e+02
-2.78315984835e+03
1.39247167980e+02
4.29658966839e+02
-3.00000000000e+03
9.35748874867e+01
5.77249468093e+02
-2.82410848990e+03
-3.64887633081e+01
7.02370653443e+02
-2.67499486775e+03
-2.31142772601e+02
7.85973956644e+02
-2.57536033081e+03
-4.60752832020e+02
8.15331532651e+02
-2.54037333413e+03
-6.90362891439e+02
7.85973956644e+02
-2.57536033081e+03
-8.85016900732e+02
7.02370653443e+02
-2.67499486775e+03
-1.01508055153e+03
5.77249468093e+02
-2.82410848990e+03
-1.06075283202e+03
4.29658966839e+02
-3.00000000000e+03
-1.01508055153e+03
2.82068465585e+02
-3.17589151010e+03
-8.85016900732e+02
1.56947280236e+02
-3.32500513225e+03
-6.90362891439e+02
7.33439770346e+01
-3.42463966919e+03
-4.60752832020e+02
4.39864010275e+01
-3.45962666587e+03
-2.31142772601e+02
7.33439770346e+01
-3.42463966919e+03
-3.64887633081e+01
1.56947280236e+02
-3.32500513225e+03
9.35748874867e+01
2.82068465585e+02
-3.17589151010e+03
-3.85501157466e+02
1.86482312474e+02
-3.28980665147e+03
-5.42147648576e+02
6.95030235725e+02
-2.68374283693e+03
-8.39068547352e+02
3.81288122828e+02
-3.05764612713e+03
-7.08121434506e+01
4.83655900143e+02
-2.93564896075e+03
-7.81473409133e+02
5.67407476355e+02
-2.83583771891e+03
-6.34476559427e+02
2.26776986862e+02
-3.24178532851e+03
-2.34565328910e+02
6.48692719502e+02
-2.73896573837e+03
-1.42041358264e+02
2.85161188911e+02
-3.17220574597e+03
-1.44990189488e+01
3.72601666001e+02
-3.06799824326e+03
-2.65198556211e+02
4.05153668847e+02
-3.02920427692e+03
-2.55159122143e+02
5.40647758235e+02
-2.86772870912e+03
-4.63043301905e+02
4.99903277397e+02
-2.91628609053e+03
-5.29764428503e+02
3.64241917225e+02
-3.07796100389e+03
-6.80842827495e+02
4.59203661243e+02
-2.96479000430e+03
-3.76782071951e+02
3.02472868463e+02
-3.15157448967e+03
-8.24371166880e+01
5.92144412527e+02
-2.80635738636e+03
-7.13535311394e+02
6.72835621205e+02
-2.71019334853e+03
-3.74101443840e+02
7.12031896534e+02
-2.66348104659e+03
-9.07006645091e+02
4.86716267677e+02
-2.93200175674e+03
-8.20248311744e+02
2.73234816746e+02
-3.18641904284e+03
-2.26842404126e+02
1.96767464581e+02
-3.27754928450e+03
-5.42773360088e+02
1.32647419350e+02
-3.35396457876e+03
-6.10120761438e+02
5.73350861291e+02
-2.82875466856e+03
-7.00880134904e+02
3.40949100981e+02
-3.10572030134e+03
-4.13189601135e+02
6.11609458114e+02
-2.78315984835e+03

</DataArray>
</Points>
<Cells>
<DataArray type="Int64" Name="connectivity" format="ascii">
0
1
36
0
15
17
0
17
36
1
2
21
1
21
36
2
3
24
2
21
24
3
4
18
3
18
24
4
5
33
4
18
33
5
6
22
5
22
33
6
7
34
6
22
34
7
8
16
7
16
34
8
9
35
8
16
35
9
10
23
9
23
35
10
11
32
10
23
32
11
12
19
11
19
32
12
13
37
12
19
37
13
14
20
13
20
37
14
15
31
14
20
31
15
17
31
16
22
30
16
22
34
16
28
30
16
28
39
16
35
39
17
26
36
17
26
40
17
31
40
18
24
25
18
25
30
18
30
33
19
29
32
19
29
38
19
37
38
20
31
40
20
37
38
20
38
40
21
24
25
21
25
26
21
26
36
22
30
33
23
29
32
23
29
39
23
35
39
25
26
27
25
27
28
25
28
30
26
27
40
27
28
29
27
29
38
27
38
40
28
29
39
41
42
77
41
56
58
41
58
77
42
43
62
42
62
77
43
44
65
43
62
65
44
45
59
44
59
65
45
46
74
45
59
74
46
47
63
46
63
74
47
48
75
47
63
75
48
49
57
48
57
75
49
50
76
49
57
76
50
51
64
50
64
76
51
52
73
51
64
73
52
53
60
52
60
73
53
54
78
53
60
78
54
55
61
54
61
78
55
56
72
55
61
72
56
58
72
57
63
71
57
63
75
57
69
71
57
69
80
57
76
80
58
67
77
58
67
81
58
72
81
59
65
66
59
66
71
59
71
74
60
70
73
60
70
79
60
78
79
61
72
81
61
78
79
61
79
81
62
65
66
62
66
67
62
67
77
63
71
74
64
70
73
64
70
80
64
76
80
66
67
68
66
68
69
66
69
71
67
68
81
68
69
70
68
70
79
68
79
81
69
70
80
82
83
101
82
97
106
82
101
106
83
84
113
83
101
113
84
85
104
84
104
113
85
86
115
85
104
115
86
87
99
86
99
115
87
88
114
87
99
114
88
89
102
88
102
114
89
90
116
89
102
116
90
91
100
90
100
116
91
92
117
91
100
117
92
93
103
92
103
117
93
94
119
93
103
119
94
95
98
94
98
119
95
96
118
95
98
118
96
97
105
96
105
118
97
105
106
98
103
112
98
103
119
98
112
118
99
114
120
99
115
122
99
120
122
100
111
116
100
111
121
100
117
121
101
106
107
101
107
108
101
108
113
102
111
116
102
111
120
102
114
120
103
110
112
103
110
121
103
117
121
104
108
113
104
108
122
104
115
122
105
106
107
105
107
112
105
112
118
107
108
109
107
109
110
107
110
112
108
109
122
109
110
111
109
111
120
109
120
122
110
111
121
123
124
142
123
138
147
123
142
147
124
125
154
124
142
154
125
126
145
125
145
154
126
127
156
126
145
156
127
128
140
127
140
156
128
129
155
128
140
155
129
130
143
129
143
155
130
131
157
130
143
157
131
132
141
131
141
157
132
133
158
132
141
158
133
134
144
133
144
158
134
135
160
134
144
160
135
136
139
135
139
160
136
137
159
136
139
159
137
138
146
137
146
159
138
146
147
139
144
153
139
144
160
139
153
159
140
155
161
140
156
163
140
161
163
141
152
157
141
152
162
141
158
162
142
147
148
142
148
149
142
149
154
143
152
157
143
152
161
143
155
161
144
151
153
144
151
162
144
158
162
145
149
154
145
149
163
145
156
163
146
147
148
146
148
153
146
153
159
148
149
150
148
150
151
148
151
153
149
150
163
150
151
152
150
152
161
150
161
163
151
152
162

</DataArray>
<DataArray type="Int64" Name="offsets" format="ascii">
3
6
9
12
15
18
21
24
27
30
33
36
39
42
45
48
51
54
57
60
63
66
69
72
75
78
81
84
87
90
93
96
99
102
105
108
111
114
117
120
123
126
129
132
135
138
141
144
147
150
153
156
159
162
165
168
171
174
177
180
183
186
189
192
195
198
201
204
207
210
213
216
219
222
225
228
231
234
237
240
243
246
249
252
255
258
261
264
267
270
273
276
279
282
285
288
291
294
297
300
303
306
309
312
315
318
321
324
327
330
333
336
339
342
345
348
351
354
357
360
363
366
369
372
375
378
381
384
387
390
393
396
399
402
405
408
411
414
417
420
423
426
429
432
435
438
441
444
447
450
453
456
459
462
465
468
471
474
477
480
483
486
489
492
495
498
501
504
507
510
513
516
519
522
525
528
531
534
537
540
543
546
549
552
555
558
561
564
567
570
573
576
579
582
585
588
591
594
597
600
603
606
609
612
615
618
621
624
627
630
633
636
639
642
645
648
651
654
657
660
663
666
669
672
675
678
681
684
687
690
693
696
699
702
705
708
711
714
717
720
723
726
729
732
735
738
741
744
747
750
753
756
759
762
765
768

</DataArray>
<DataArray type="Int64" Name="types" format="ascii">
5
5
5
5
5
5
5
5
5
5
5
5
5
5
5
5
5
5
5
5
5
5
5
5
5
5
5
5
5
5
5
5
5
5
5
5
5
5
5
5
5
5
5
5
5
5
5
5
5
5
5
5
5
5
5
5
5
5
5
5
5
5
5
5
5
5
5
5
5
5
5
5
5
5
5
5
5
5
5
5
5
5
5
5
5
5
5
5
5
5
5
5
5
5
5
5
5
5
5
5
5
5
5
5
5
5
5
5
5
5
5
5
5
5
5
5
5
5
5
5
5
5
5
5
5
5
5
5
5
5
5
5
5
5
5
5
5
5
5
5
5
5
5
5
5
5
5
5
5
5
5
5
5
5
5
5
5
5
5
5
5
5
5
5
5
5
5
5
5
5
5
5
5
5
5
5
5
5
5
5
5
5
5
5
5
5
5
5
5
5
5
5
5
5
5
5
5
5
5
5
5
5
5
5
5
5
5
5
5
5
5
5
5
5
5
5
5
5
5
5
5
5
5
5
5
5
5
5
5
5
5
5
5
5
5
5
5
5
5
5
5
5
5
5
5
5
5
5
5
5
5
5
5
5
5
5

</DataArray>
</Cells>
<PointData>
<DataArray type="Int64" Name="node_id" format="ascii">
0
1
2
3
4
5
6
7
8
9
10
11
12
13
14
15
16
17
18
19
20
21
22
23
24
25
26
27
28
29
30
31
32
33
34
35
36
37
38
39
40
41
42
43
44
45
46
47
48
49
50
51
52
53
54
55
56
57
58
59
60
61
62
63
64
65
66
67
68
69
70
71
72
73
74
75
76
77
78
79
80
81
0
1
2
3
4
5
6
7
8
9
10
11
12
13
14
15
16
17
18
19
20
21
22
23
24
25
26
27
28
29
30
31
32
33
34
35
36
37
38
39
40
41
42
43
44
45
46
47
48
49
50
51
52
53
54
55
56
57
58
59
60
61
62
63
64
65
66
67
68
69
70
71
72
73
74
75
76
77
78
79
80
81

</DataArray>
</PointData>
<CellData>
<DataArray type="Int64" Name="cell_id" format="ascii">
0
1
2
3
4
5
6
7
8
9
10
11
12
13
14
15
16
17
18
19
20
21
22
23
24
25
26
27
28
29
30
31
32
33
34
35
36
37
38
39
40
41
42
43
44
45
46
47
48
49
50
51
52
53
54
55
56
57
58
59
60
61
62
63
64
65
66
67
68
69
70
71
72
73
74
75
76
77
78
79
80
81
82
83
84
85
86
87
88
89
90
91
92
93
94
95
96
97
98
99
100
101
102
103
104
105
106
107
108
109
110
111
112
113
114
115
116
117
118
119
120
121
122
123
124
125
126
127
0
1
2
3
4
5
6
7
8
9
10
11
12
13
14
15
16
17
18
19
20
21
22
23
24
25
26
27
28
29
30
31
32
33
34
35
36
37
38
39
40
41
42
43
44
45
46
47
48
49
50
51
52
53
54
55
56
57
58
59
60
61
62
63
64
65
66
67
68
69
70
71
72
73
74
75
76
77
78
79
80
81
82
83
84
85
86
87
88
89
90
91
92
93
94
95
96
97
98
99
100
101
102
103
104
105
106
107
108
109
110
111
112
113
114
115
116
117
118
119
120
121
122
123
124
125
126
127

</DataArray>
<DataArray type="Int64" Name="grid_dim" format="ascii">
2
2
2
2
2
2
2
2
2
2
2
2
2
2
2
2
2
2
2
2
2
2
2
2
2
2
2
2
2
2
2
2
2
2
2
2
2
2
2
2
2
2
2
2
2
2
2
2
2
2
2
2
2
2
2
2
2
2
2
2
2
2
2
2
2
2
2
2
2
2
2
2
2
2
2
2
2
2
2
2
2
2
2
2
2
2
2
2
2
2
2
2
2
2
2
2
2
2
2
2
2
2
2
2
2
2
2
2
2
2
2
2
2
2
2
2
2
2
2
2
2
2
2
2
2
2
2
2
2
2
2
2
2
2
2
2
2
2
2
2
2
2
2
2
2
2
2
2
2
2
2
2
2
2
2
2
2
2
2
2
2
2
2
2
2
2
2
2
2
2
2
2
2
2
2
2
2
2
2
2
2
2
2
2
2
2
2
2
2
2
2
2
2
2
2
2
2
2
2
2
2
2
2
2
2
2
2
2
2
2
2
2
2
2
2
2
2
2
2
2
2
2
2
2
2
2
2
2
2
2
2
2
2
2
2
2
2
2
2
2
2
2
2
2
2
2
2
2
2
2
2
2
2
2
2
2

</DataArray>
<DataArray type="Float64" Name="interface_darcy_flux" format="ascii">
4.58791972957e-12
5.88551942231e-12
3.58543711742e-12
5.52885917306e-12
3.33318376888e-12
3.20896606981e-12
3.32524518047e-12
3.02732159308e-12
2.84332471330e-12
1.84981242469e-12
1.97621331940e-12
1.60491699115e-12
1.07983746788e-12
1.41113121016e-12
7.94111574909e-13
2.21036285169e-12
1.07746180215e-12
1.63735010523e-12
1.44672297386e-12
3.03742101652e-12
1.73505207652e-12
2.97630949087e-12
2.54677674626e-12
5.52665867815e-12
3.27173502295e-12
4.64102418710e-12
3.51664888657e-12
5.60451355391e-12
3.49147431545e-12
5.91383922273e-12
3.76635513060e-12
3.75818013111e-12
4.22117099792e-12
1.13548134945e-12
4.33375004010e-12
3.15869779813e-12
2.48835315597e-12
2.93111488816e-12
3.09067742357e-12
2.86503891853e-12
4.01513357840e-12
4.07742252029e-12
3.04586181705e-12
3.41053818242e-12
3.03396859321e-12
2.87065837050e-12
2.84289961038e-12
3.21005831979e-12
3.55583362766e-12
4.08619167504e-12
4.04997611788e-12
3.14726765140e-12
2.54998418630e-12
3.37914000842e-12
2.62365496206e-12
1.93214119532e-12
4.39669085873e-12
5.15672069067e-12
3.81358921915e-12
3.43927898157e-12
4.17790241352e-12
3.47346660362e-12
3.25179934636e-12
3.04861894842e-12
-2.88585289159e-12
-3.53541766317e-12
-2.22015238417e-12
-3.52665057824e-12
-1.87861212817e-12
-2.85585790566e-12
-2.26506623564e-12
-3.97960055574e-12
-2.21381349340e-12
-3.20177219567e-12
-2.27798761349e-12
-3.39587504321e-12
-1.88127605273e-12
-2.53100283841e-12
-1.83237764986e-12
-3.81126136093e-12
-1.89536344238e-12
-3.07162294878e-12
-2.30245918158e-12
-4.66134439849e-12
-2.27979231713e-12
-2.90414088265e-12
-2.35271094316e-12
-3.75278465536e-12
-1.75918072018e-12
-3.35273629549e-12
-2.27972251927e-12
-3.19574835359e-12
-2.21362293388e-12
-1.95541628135e-12
-1.64682737956e-12
-1.71875778563e-12
-1.94369576429e-12
-1.41870996154e-12
-1.75313619241e-12
-1.35488892820e-12
-1.36180230151e-12
-1.36480674691e-12
-1.22016154523e-12
-1.16703603570e-12
-1.84503827715e-12
-1.68713277700e-12
-1.52954917426e-12
-1.50065081368e-12
-1.22587437357e-12
-1.32326083930e-12
-1.18498634405e-12
-1.50706503913e-12
-1.49439251938e-12
-1.85597300226e-12
-1.61909190380e-12
-1.44843605174e-12
-1.29420030841e-12
-1.59579679383e-12
-1.09207866616e-12
-1.05615869233e-12
-1.60194210445e-12
-1.85342257888e-12
-1.44327344198e-12
-1.29402325407e-12
-1.53277146660e-12
-1.32683612729e-12
-1.26112504329e-12
-1.16101493777e-12
4.99185119784e-12
3.47772509697e-12
2.96295382103e-12
3.75110809877e-12
2.77978256104e-12
5.38294115578e-12
2.86189521280e-12
4.62948158465e-12
3.28702907724e-12
4.62822976239e-12
2.74195010960e-12
4.26431718606e-12
2.86552905285e-12
6.10876762145e-12
3.29154483340e-12
3.72135253710e-12
2.91923695263e-12
5.22306679603e-12
2.74528564489e-12
4.99067347393e-12
3.19454378624e-12
5.63077089030e-12
3.63514631369e-12
3.38364692707e-12
2.42713587468e-12
5.76372016483e-12
2.83698804741e-12
4.32468661463e-12
2.90885550010e-12
4.44229206519e-12
2.63268148678e-12
2.78737385288e-12
2.73742029192e-12
2.20069239423e-12
1.85692213457e-12
2.11148884362e-12
1.80280430218e-12
2.17371440798e-12
2.25037665813e-12
1.67277279616e-12
1.52634481252e-12
2.90189701198e-12
2.57180610948e-12
2.24305726014e-12
2.22997603016e-12
1.74284283665e-12
1.89098103592e-12
2.43300051856e-12
1.96557629223e-12
1.88262604649e-12
1.91076382770e-12
1.79935432634e-12
1.85959620949e-12
2.69562786835e-12
2.35505113884e-12
2.25320186032e-12
2.38299109344e-12
2.66095620670e-12
1.84109408032e-12
1.88370585012e-12
2.22860488153e-12
1.88828327175e-12
1.81410368973e-12
1.77139441199e-12
-9.68188337489e-13
-3.45467127780e-13
-5.25342858015e-13
-1.08957299611e-12
-1.03307496024e-12
-3.05272858114e-12
-2.02541611030e-12
-3.79628849027e-12
-2.92938446097e-12
-4.72825078667e-12
-3.06405800546e-12
-4.04617875219e-12
-3.16707740833e-12
-5.65724528800e-12
-3.30226802240e-12
-3.92450773193e-12
-3.37297236498e-12
-5.52348219478e-12
-3.32666388428e-12
-4.27628431093e-12
-3.35362777382e-12
-4.27592046670e-12
-3.91899155062e-12
-8.68153723739e-13
-2.24718071619e-12
-1.09273191871e-12
-1.15968391080e-12
-5.18983964301e-13
-6.92523649130e-13
-7.42035155751e-13
-5.41691424755e-13
-5.47621886306e-13
-4.79811566720e-12
-2.95358005440e-12
-2.84318470816e-12
-3.00511215007e-12
-2.54116372184e-12
-3.32984113101e-12
-3.41231223162e-12
-2.67778427667e-12
-2.22534711704e-12
-3.47985236685e-12
-4.27355658925e-12
-2.90419875219e-12
-3.36606597456e-12
-2.96693069666e-12
-2.74251420527e-12
-4.52624982295e-12
-3.37887237690e-12
-2.88545404510e-12
-2.73203536966e-12
-2.96933044936e-12
-2.61108447307e-12
-3.46465142870e-12
-4.56357381772e-12
-3.13762330260e-12
-4.57734565069e-12
-5.45704825456e-12
-3.83212088975e-12
-3.39462199211e-12
-4.24936522566e-12
-3.43876646810e-12
-3.15727982817e-12
-3.12428939720e-12

</DataArray>
<DataArray type="Int64" Name="interface_id" format="ascii">
0
0
0
0
0
0
0
0
0
0
0
0
0
0
0
0
0
0
0
0
0
0
0
0
0
0
0
0
0
0
0
0
0
0
0
0
0
0
0
0
0
0
0
0
0
0
0
0
0
0
0
0
0
0
0
0
0
0
0
0
0
0
0
0
0
0
0
0
0
0
0
0
0
0
0
0
0
0
0
0
0
0
0
0
0
0
0
0
0
0
0
0
0
0
0
0
0
0
0
0
0
0
0
0
0
0
0
0
0
0
0
0
0
0
0
0
0
0
0
0
0
0
0
0
0
0
0
0
1
1
1
1
1
1
1
1
1
1
1
1
1
1
1
1
1
1
1
1
1
1
1
1
1
1
1
1
1
1
1
1
1
1
1
1
1
1
1
1
1
1
1
1
1
1
1
1
1
1
1
1
1
1
1
1
1
1
1
1
1
1
1
1
1
1
1
1
1
1
1
1
1
1
1
1
1
1
1
1
1
1
1
1
1
1
1
1
1
1
1
1
1
1
1
1
1
1
1
1
1
1
1
1
1
1
1
1
1
1
1
1
1
1
1
1
1
1
1
1
1
1
1
1
1
1
1
1

</DataArray>
<DataArray type="Int64" Name="is_mortar" format="ascii">
1
1
1
1
1
1
1
1
1
1
1
1
1
1
1
1
1
1
1
1
1
1
1
1
1
1
1
1
1
1
1
1
1
1
1
1
1
1
1
1
1
1
1
1
1
1
1
1
1
1
1
1
1
1
1
1
1
1
1
1
1
1
1
1
1
1
1
1
1
1
1
1
1
1
1
1
1
1
1
1
1
1
1
1
1
1
1
1
1
1
1
1
1
1
1
1
1
1
1
1
1
1
1
1
1
1
1
1
1
1
1
1
1
1
1
1
1
1
1
1
1
1
1
1
1
1
1
1
1
1
1
1
1
1
1
1
1
1
1
1
1
1
1
1
1
1
1
1
1
1
1
1
1
1
1
1
1
1
1
1
1
1
1
1
1
1
1
1
1
1
1
1
1
1
1
1
1
1
1
1
1
1
1
1
1
1
1
1
1
1
1
1
1
1
1
1
1
1
1
1
1
1
1
1
1
1
1
1
1
1
1
1
1
1
1
1
1
1
1
1
1
1
1
1
1
1
1
1
1
1
1
1
1
1
1
1
1
1
1
1
1
1
1
1
1
1
1
1
1
1
1
1
1
1
1
1

</DataArray>
<DataArray type="Int64" Name="mortar_side" format="ascii">
1
1
1
1
1
1
1
1
1
1
1
1
1
1
1
1
1
1
1
1
1
1
1
1
1
1
1
1
1
1
1
1
1
1
1
1
1
1
1
1
1
1
1
1
1
1
1
1
1
1
1
1
1
1
1
1
1
1
1
1
1
1
1
1
2
2
2
2
2
2
2
2
2
2
2
2
2
2
2
2
2
2
2
2
2
2
2
2
2
2
2
2
2
2
2
2
2
2
2
2
2
2
2
2
2
2
2
2
2
2
2
2
2
2
2
2
2
2
2
2
2
2
2
2
2
2
2
2
1
1
1
1
1
1
1
1
1
1
1
1
1
1
1
1
1
1
1
1
1
1
1
1
1
1
1
1
1
1
1
1
1
1
1
1
1
1
1
1
1
1
1
1
1
1
1
1
1
1
1
1
1
1
1
1
1
1
1
1
1
1
1
1
2
2
2
2
2
2
2
2
2
2
2
2
2
2
2
2
2
2
2
2
2
2
2
2
2
2
2
2
2
2
2
2
2
2
2
2
2
2
2
2
2
2
2
2
2
2
2
2
2
2
2
2
2
2
2
2
2
2
2
2
2
2
2
2

</DataArray>
<DataArray type="Float64" Name="u_interface" NumberOfComponents="3" format="ascii">
-1.49891732775e-05
1.28258817925e-04
-6.46486955117e-04
-1.45830636647e-05
9.74417921617e-05
-5.83939624480e-04
-2.10435503486e-05
1.08230856717e-04
-6.20383162068e-04
-2.75360458498e-05
1.44064960215e-04
-6.98606903008e-04
-2.99135780286e-05
1.31683949558e-04
-6.75776793621e-04
-4.57980272227e-05
1.51984627045e-04
-7.51289090502e-04
-4.25614444041e-05
1.42017475226e-04
-7.20291533331e-04
-7.30042295925e-05
1.38389836082e-04
-7.80552159420e-04
-6.42417564168e-05
1.41500191675e-04
-7.61836392418e-04
-9.84027382607e-05
1.20472812109e-04
-7.86782633105e-04
-8.88823073220e-05
1.27316519901e-04
-7.81487732329e-04
-1.22625935543e-04
9.86066444403e-05
-7.72189515350e-04
-1.11105401124e-04
1.05052189342e-04
-7.79288869114e-04
-1.43501515734e-04
8.24521834534e-05
-7.45671051373e-04
-1.30585769136e-04
8.46304564723e-05
-7.63305533264e-04
-1.55119187202e-04
5.30089823805e-05
-7.06185285982e-04
-1.46191293720e-04
6.53384854947e-05
-7.27921849436e-04
-1.61645670784e-04
2.92958337108e-05
-6.53835305289e-04
-1.50579330073e-04
3.81461395127e-05
-6.87495596323e-04
-1.50608734263e-04
9.24521742555e-06
-5.97601334443e-04
-1.48842912976e-04
1.75318253712e-05
-6.34206890344e-04
-1.32559079382e-04
-6.63255818513e-06
-5.35580370637e-04
-1.36563126039e-04
-6.38813446768e-07
-5.77589643158e-04
-1.02130042774e-04
9.65624878409e-07
-5.03315282764e-04
-1.14538593205e-04
-5.17755701066e-06
-5.32977037347e-04
-7.07364861791e-05
1.27024504671e-05
-4.78072657578e-04
-8.64539570437e-05
7.06142228320e-06
-5.08810326505e-04
-4.40126123732e-05
3.67073689598e-05
-4.97138878114e-04
-5.97267878488e-05
2.28825998204e-05
-5.04338380648e-04
-2.36603959452e-05
6.65300084255e-05
-5.27153471611e-04
-3.70608712892e-05
5.15382475498e-05
-5.23094801930e-04
-2.58298739961e-05
7.95971352663e-05
-5.61922448061e-04
-1.18829151861e-04
8.01008608234e-05
-7.34682702252e-04
-1.31827684662e-04
7.29933550434e-05
-7.42263952463e-04
-1.13999079828e-04
6.86068811149e-05
-7.04570409905e-04
-1.22346095478e-04
5.08919788833e-05
-6.82309865149e-04
-1.35623692204e-04
3.95326844288e-05
-6.77391659308e-04
-3.78801073687e-05
9.98495581100e-05
-6.33259879268e-04
-4.68824430591e-05
8.19837901207e-05
-6.14769202153e-04
-4.13324512714e-05
7.08313652885e-05
-5.80302262154e-04
-6.99537235893e-05
1.21012393132e-04
-7.30958716256e-04
-8.49535724413e-05
1.04490451854e-04
-7.25515312835e-04
-9.43067780889e-05
1.10204280159e-04
-7.51585107639e-04
-1.10022780894e-04
1.07994466838e-05
-5.74999537344e-04
-9.56761414296e-05
2.39440258301e-05
-5.78093028870e-04
-8.52190718340e-05
1.88645207721e-05
-5.43365847296e-04
-4.83009306501e-05
5.41073598548e-05
-5.55779675267e-04
-6.99480994939e-05
2.87086462247e-05
-5.38276356885e-04
-6.34140609358e-05
4.44967140226e-05
-5.64161219740e-04
-5.78067949812e-05
1.21473784440e-04
-7.09974342466e-04
-5.70823875019e-05
1.06687624252e-04
-6.78720688253e-04
-4.20543357713e-05
1.13047722847e-04
-6.64953171847e-04
-1.07285455837e-04
9.87098269941e-05
-7.52458138859e-04
-1.21301584884e-04
1.38495582110e-05
-5.98518346722e-04
-1.21377308284e-04
2.69048674334e-05
-6.27442143927e-04
-1.34463847503e-04
2.66499978789e-05
-6.44005538797e-04
-6.83395390706e-05
8.56786863479e-05
-6.59261421354e-04
-8.61140949566e-05
7.41473095428e-05
-6.67241171741e-04
-9.33359689744e-05
8.34137836419e-05
-6.99048769645e-04
-6.21737714912e-05
7.32896248709e-05
-6.24153704859e-04
-9.67382473713e-05
5.14799187695e-05
-6.39064103642e-04
-8.87511650564e-05
4.25977516598e-05
-6.06816403743e-04
-7.18218745827e-05
5.34584150544e-05
-5.99684604338e-04
-1.11958974443e-04
4.27987677710e-05
-6.47632504286e-04
-1.54639432450e-05
1.85208502677e-04
-5.90969651463e-04
-1.92238630120e-05
1.55775468720e-04
-5.27091445428e-04
-2.43232625657e-05
1.79011504199e-04
-5.51390143305e-04
-2.73942568839e-05
2.02826858362e-04
-6.41322778484e-04
-2.59317190647e-05
2.06602629608e-04
-6.02752798115e-04
-4.29680399798e-05
2.15722674263e-04
-6.89160243348e-04
-3.96755398071e-05
2.15821917300e-04
-6.48348800986e-04
-6.85241298836e-05
2.24637465026e-04
-6.96485175409e-04
-5.78922687164e-05
2.30097054871e-04
-6.75490398314e-04
-9.32826649153e-05
2.22266556075e-04
-6.90720810335e-04
-8.27540696708e-05
2.33690027444e-04
-6.77807033576e-04
-1.21859532316e-04
2.02791433713e-04
-6.70625069699e-04
-1.08101323362e-04
2.23852523573e-04
-6.63479961078e-04
-1.48644090023e-04
1.91824529246e-04
-6.40444041399e-04
-1.34829542015e-04
2.09184968150e-04
-6.41890597346e-04
-1.55012094350e-04
1.71313763952e-04
-5.90855662572e-04
-1.43002539093e-04
1.89349274846e-04
-6.07033822405e-04
-1.66690519173e-04
1.41803891111e-04
-5.44167970011e-04
-1.54870737276e-04
1.69289551948e-04
-5.59657249868e-04
-1.57036677347e-04
1.13342631314e-04
-4.96141688756e-04
-1.54206240870e-04
1.41675654164e-04
-5.13196678458e-04
-1.40694797885e-04
8.88040915656e-05
-4.42578549398e-04
-1.41835494011e-04
1.16583611198e-04
-4.63327046594e-04
-1.08485729401e-04
9.23366835413e-05
-4.14264210371e-04
-1.20810047638e-04
1.08607034240e-04
-4.22071260346e-04
-7.84680500213e-05
8.30195935852e-05
-4.09566459851e-04
-9.30350872632e-05
1.06086231024e-04
-4.12297746519e-04
-5.18348008213e-05
1.07044200955e-04
-4.28614477618e-04
-6.85601877972e-05
1.10202020382e-04
-4.19259670171e-04
-2.97029152119e-05
1.31136786662e-04
-4.64199764585e-04
-4.57649490746e-05
1.32007167436e-04
-4.44696707300e-04
-3.20554717780e-05
1.51465780169e-04
-4.91888204937e-04
-1.17690372852e-04
2.22699269340e-04
-5.95670844454e-04
-1.29633781791e-04
2.11187176385e-04
-6.07547205390e-04
-1.15223418178e-04
2.14082803724e-04
-5.62753463038e-04
-1.25370958770e-04
1.97316010977e-04
-5.39571269862e-04
-1.39775902838e-04
1.81541862175e-04
-5.38959848069e-04
-3.96671425433e-05
1.96302332404e-04
-5.39234380392e-04
-5.18955198486e-05
1.91693046411e-04
-5.07830426416e-04
-4.85308846794e-05
1.69885051516e-04
-4.83765828349e-04
-6.61287818107e-05
2.30327636064e-04
-6.24399269127e-04
-8.30853920161e-05
2.27691479793e-04
-6.05413991150e-04
-9.08156281209e-05
2.30507726376e-04
-6.34312159650e-04
-1.14235339029e-04
1.47627407912e-04
-4.41619059926e-04
-1.00012903098e-04
1.56142003832e-04
-4.49226729574e-04
-9.06943603437e-05
1.34902666673e-04
-4.30258810803e-04
-5.48021513346e-05
1.52680513637e-04
-4.59706960761e-04
-7.67688638490e-05
1.35017748752e-04
-4.34662682778e-04
-6.97798533889e-05
1.54325580188e-04
-4.57112856589e-04
-5.53403588189e-05
2.25537953703e-04
-6.08530133093e-04
-5.53229283450e-05
2.17877361081e-04
-5.70328570795e-04
-3.97290530737e-05
2.11796100871e-04
-5.68690885353e-04
-1.04939010181e-04
2.27098478881e-04
-6.27300382839e-04
-1.26270213092e-04
1.52097714345e-04
-4.63755841334e-04
-1.25985004721e-04
1.67562486684e-04
-4.90329383226e-04
-1.41113630177e-04
1.63901718253e-04
-5.10221612282e-04
-6.85619524189e-05
2.10528635580e-04
-5.37551244536e-04
-8.68386190022e-05
2.09774934107e-04
-5.35024533107e-04
-9.40657459012e-05
2.20667588208e-04
-5.65246847014e-04
-6.59493534192e-05
1.93320155714e-04
-5.07147684169e-04
-9.98911855447e-05
1.91744245568e-04
-5.02330728710e-04
-9.21702584471e-05
1.75056557062e-04
-4.77693127215e-04
-7.62840048333e-05
1.76311523251e-04
-4.79929161152e-04
-1.16349592326e-04
1.87757798975e-04
-5.06325603935e-04
7.95332096233e-06
1.98529824566e-05
-7.07196259879e-04
1.00844737316e-05
-5.20125520729e-06
-6.52141913398e-04
1.38271394306e-06
-2.00007669987e-06
-6.86192187875e-04
-1.30941922763e-07
4.54762068370e-05
-7.54719620979e-04
-1.82447185644e-06
2.52165933998e-05
-7.37314764277e-04
-2.03930201234e-05