<?xml version="1.0"?>
<VTKFile type="UnstructuredGrid" version="0.1" byte_order="LittleEndian">
<!--This file was created by meshio v5.3.5-->
<UnstructuredGrid>
<Piece NumberOfPoints="82" NumberOfCells="128">
<Points>
<DataArray type="Float64" Name="Points" NumberOfComponents="3" format="ascii">
-3.62777204087e+01
5.93338573254e+02
-3.00000000000e+03
-8.19500009019e+01
7.40929074508e+02
-2.82410848990e+03
-2.12013651697e+02
8.66050259858e+02
-2.67499486775e+03
-4.06667660990e+02
9.49653563059e+02
-2.57536033081e+03
-6.36277720409e+02
9.79011139066e+02
-2.54037333413e+03
-8.65887779828e+02
9.49653563059e+02
-2.57536033081e+03
-1.06054178912e+03
8.66050259858e+02
-2.67499486775e+03
-1.19060543992e+03
7.40929074508e+02
-2.82410848990e+03
-1.23627772041e+03
5.93338573254e+02
-3.00000000000e+03
-1.19060543992e+03
4.45748072000e+02
-3.17589151010e+03
-1.06054178912e+03
3.20626886651e+02
-3.32500513225e+03
-8.65887779828e+02
2.37023583450e+02
-3.42463966919e+03
-6.36277720409e+02
2.07666007442e+02
-3.45962666587e+03
-4.06667660990e+02
2.37023583450e+02
-3.42463966919e+03
-2.12013651697e+02
3.20626886651e+02
-3.32500513225e+03
-8.19500009019e+01
4.45748072000e+02
-3.17589151010e+03
-9.82301878795e+02
6.57836979237e+02
-2.92313379295e+03
-2.35388105079e+02
5.41264947208e+02
-3.06205893092e+03
-5.69871316028e+02
8.40374504474e+02
-2.70559404147e+03
-7.11529394962e+02
3.50161918889e+02
-3.28980665147e+03
-4.01907468113e+02
3.68697219987e+02
-3.26771713980e+03
-3.01147993968e+02
7.32392613644e+02
-2.83428184780e+03
-8.72831799617e+02
8.02387168171e+02
-2.75086558598e+03
-9.56998297522e+02
4.55590063739e+02
-3.16416228109e+03
-3.83495241035e+02
8.36515227620e+02
-2.71019334853e+03
-5.24957334276e+02
6.99549662937e+02
-2.87342255230e+03
-3.68806365849e+02
6.08303991849e+02
-2.98216490863e+03
-5.60624169490e+02
5.42627281744e+02
-3.06043536384e+03
-7.57039155452e+02
6.08228297855e+02
-2.98225511721e+03
-7.59403827432e+02
4.72412129709e+02
-3.14411452353e+03
-7.22504460330e+02
7.28377464595e+02
-2.83906691610e+03
-2.64377961448e+02
4.33055503539e+02
-3.19101792417e+03
-8.89060199783e+02
3.50161918889e+02
-3.28980665147e+03
-7.33474615242e+02
8.59960767873e+02
-2.68225204170e+03
-1.02657022686e+03
7.66800870444e+02
-2.79327568415e+03
-1.06255581105e+03
5.40549452857e+02
-3.06291162388e+03
-1.90023907337e+02
6.50395874092e+02
-2.93200175674e+03
-5.47512317998e+02
3.06492151437e+02
-3.34185025372e+03
-5.83826678727e+02
4.23842427026e+02
-3.20199764120e+03
-9.03659794049e+02
5.46923384679e+02
-3.05531546774e+03
-4.02488458118e+02
4.86298561892e+02
-3.12756531809e+03
1.39247167980e+02
4.29658966839e+02
-3.00000000000e+03
9.35748874867e+01
5.77249468093e+02
-2.82410848990e+03
-3.64887633081e+01
7.02370653443e+02
-2.67499486775e+03
-2.31142772601e+02
7.85973956644e+02
-2.57536033081e+03
-4.60752832020e+02
8.15331532651e+02
-2.54037333413e+03
-6.90362891439e+02
7.85973956644e+02
-2.57536033081e+03
-8.85016900732e+02
7.02370653443e+02
-2.67499486775e+03
-1.01508055153e+03
5.77249468093e+02
-2.82410848990e+03
-1.06075283202e+03
4.29658966839e+02
-3.00000000000e+03
-1.01508055153e+03
2.82068465585e+02
-3.17589151010e+03
-8.85016900732e+02
1.56947280236e+02
-3.32500513225e+03
-6.90362891439e+02
7.33439770346e+01
-3.42463966919e+03
-4.60752832020e+02
4.39864010275e+01
-3.45962666587e+03
-2.31142772601e+02
7.33439770346e+01
-3.42463966919e+03
-3.64887633081e+01
1.56947280236e+02
-3.32500513225e+03
9.35748874867e+01
2.82068465585e+02
-3.17589151010e+03
-3.85501157466e+02
1.86482312474e+02
-3.28980665147e+03
-5.42147648576e+02
6.95030235725e+02
-2.68374283693e+03
-8.39068547352e+02
3.81288122828e+02
-3.05764612713e+03
-7.08121434506e+01
4.83655900143e+02
-2.93564896075e+03
-7.81473409133e+02
5.67407476355e+02
-2.83583771891e+03
-6.34476559427e+02
2.26776986862e+02
-3.24178532851e+03
-2.34565328910e+02
6.48692719502e+02
-2.73896573837e+03
-1.42041358264e+02
2.85161188911e+02
-3.17220574597e+03
-1.44990189488e+01
3.72601666001e+02
-3.06799824326e+03
-2.65198556211e+02
4.05153668847e+02
-3.02920427692e+03
-2.55159122143e+02
5.40647758235e+02
-2.86772870912e+03
-4.63043301905e+02
4.99903277397e+02
-2.91628609053e+03
-5.29764428503e+02
3.64241917225e+02
-3.07796100389e+03
-6.80842827495e+02
4.59203661243e+02
-2.96479000430e+03
-3.76782071951e+02
3.02472868463e+02
-3.15157448967e+03
-8.24371166880e+01
5.92144412527e+02
-2.80635738636e+03
-7.13535311394e+02
6.72835621205e+02
-2.71019334853e+03
-3.74101443840e+02
7.12031896534e+02
-2.66348104659e+03
-9.07006645091e+02
4.86716267677e+02
-2.93200175674e+03
-8.20248311744e+02
2.73234816746e+02
-3.18641904284e+03
-2.26842404126e+02
1.96767464581e+02
-3.27754928450e+03
-5.42773360088e+02
1.32647419350e+02
-3.35396457876e+03
-6.10120761438e+02
5.73350861291e+02
-2.82875466856e+03
-7.00880134904e+02
3.40949100981e+02
-3.10572030134e+03
-4.13189601135e+02
6.11609458114e+02
-2.78315984835e+03

</DataArray>
</Points>
<Cells>
<DataArray type="Int64" Name="connectivity" format="ascii">
0
1
36
0
15
17
0
17
36
1
2
21
1
21
36
2
3
24
2
21
24
3
4
18
3
18
24
4
5
33
4
18
33
5
6
22
5
22
33
6
7
34
6
22
34
7
8
16
7
16
34
8
9
35
8
16
35
9
10
23
9
23
35
10
11
32
10
23
32
11
12
19
11
19
32
12
13
37
12
19
37
13
14
20
13
20
37
14
15
31
14
20
31
15
17
31
16
22
30
16
22
34
16
28
30
16
28
39
16
35
39
17
26
36
17
26
40
17
31
40
18
24
25
18
25
30
18
30
33
19
29
32
19
29
38
19
37
38
20
31
40
20
37
38
20
38
40
21
24
25
21
25
26
21
26
36
22
30
33
23
29
32
23
29
39
23
35
39
25
26
27
25
27
28
25
28
30
26
27
40
27
28
29
27
29
38
27
38
40
28
29
39
41
42
60
41
56
65
41
60
65
42
43
72
42
60
72
43
44
63
43
63
72
44
45
74
44
63
74
45
46
58
45
58
74
46
47
73
46
58
73
47
48
61
47
61
73
48
49
75
48
61
75
49
50
59
49
59
75
50
51
76
50
59
76
51
52
62
51
62
76
52
53
78
52
62
78
53
54
57
53
57
78
54
55
77
54
57
77
55
56
64
55
64
77
56
64
65
57
62
71
57
62
78
57
71
77
58
73
79
58
74
81
58
79
81
59
70
75
59
70
80
59
76
80
60
65
66
60
66
67
60
67
72
61
70
75
61
70
79
61
73
79
62
69
71
62
69
80
62
76
80
63
67
72
63
67
81
63
74
81
64
65
66
64
66
71
64
71
77
66
67
68
66
68
69
66
69
71
67
68
81
68
69
70
68
70
79
68
79
81
69
70
80

</DataArray>
<DataArray type="Int64" Name="offsets" format="ascii">
3
6
9
12
15
18
21
24
27
30
33
36
39
42
45
48
51
54
57
60
63
66
69
72
75
78
81
84
87
90
93
96
99
102
105
108
111
114
117
120
123
126
129
132
135
138
141
144
147
150
153
156
159
162
165
168
171
174
177
180
183
186
189
192
195
198
201
204
207
210
213
216
219
222
225
228
231
234
237
240
243
246
249
252
255
258
261
264
267
270
273
276
279
282
285
288
291
294
297
300
303
306
309
312
315
318
321
324
327
330
333
336
339
342
345
348
351
354
357
360
363
366
369
372
375
378
381
384

</DataArray>
<DataArray type="Int64" Name="types" format="ascii">
5
5
5
5
5
5
5
5
5
5
5
5
5
5
5
5
5
5
5
5
5
5
5
5
5
5
5
5
5
5
5
5
5
5
5
5
5
5
5
5
5
5
5
5
5
5
5
5
5
5
5
5
5
5
5
5
5
5
5
5
5
5
5
5
5
5
5
5
5
5
5
5
5
5
5
5
5
5
5
5
5
5
5
5
5
5
5
5
5
5
5
5
5
5
5
5
5
5
5
5
5
5
5
5
5
5
5
5
5
5
5
5
5
5
5
5
5
5
5
5
5
5
5
5
5
5
5
5

</DataArray>
</Cells>
<PointData>
<DataArray type="Int64" Name="node_id" format="ascii">
0
1
2
3
4
5
6
7
8
9
10
11
12
13
14
15
16
17
18
19
20
21
22
23
24
25
26
27
28
29
30
31
32
33
34
35
36
37
38
39
40
0
1
2
3
4
5
6
7
8
9
10
11
12
13
14
15
16
17
18
19
20
21
22
23
24
25
26
27
28
29
30
31
32
33
34
35
36
37
38
39
40

</DataArray>
</PointData>
<CellData>
<DataArray type="Float64" Name="aperture" format="ascii">
1.01579606458e-03
1.01567877143e-03
1.01987901671e-03
1.01829339230e-03
1.02217128472e-03
1.02404385971e-03
1.02470777245e-03
1.04206103930e-03
1.03285065345e-03
1.04866248866e-03
1.04683576666e-03
1.04979640752e-03
1.04260484366e-03
1.04261271704e-03
1.06888125231e-03
1.06484276614e-03
1.05731835924e-03
1.07238702669e-03
1.07460018172e-03
1.07612642742e-03
1.08799800318e-03
1.09052880409e-03
1.09631810279e-03
1.07036830894e-03
1.08743228037e-03
1.03753329257e-03
1.05882877720e-03
1.02128523438e-03
1.04121461389e-03
1.01600151259e-03
1.02008643032e-03
1.01877162601e-03
1.09360696642e-03
1.09334535148e-03
1.09845924433e-03
1.11175734848e-03
1.09739035224e-03
1.02642511510e-03
1.03021244397e-03
1.02643495350e-03
1.03861479892e-03
1.04291751861e-03
1.04299042268e-03
1.09826118718e-03
1.07520070074e-03
1.05497062686e-03
1.02694863742e-03
1.04857605270e-03
1.04223938464e-03
1.03419536906e-03
1.03473381784e-03
1.02816604863e-03
1.04941303805e-03
1.11591191590e-03
1.11381458148e-03
1.10063653932e-03
1.05182551931e-03
1.05823465787e-03
1.06505503303e-03
1.04649727667e-03
1.07778352347e-03
1.06617804171e-03
1.05353035134e-03
1.10724912468e-03
1.02996321434e-03
1.03087875616e-03
1.03496900578e-03
1.02862713068e-03
1.03479122566e-03
1.04553541627e-03
1.05260505646e-03
1.05001498656e-03
1.05348718883e-03
1.04100908171e-03
1.06160401369e-03
1.01548115859e-03
1.03102778022e-03
1.01518774449e-03
1.02039577247e-03
1.01415729635e-03
1.01909874708e-03
1.01511639047e-03
1.01952726746e-03
1.01725825935e-03
1.02031005994e-03
1.02360306801e-03
1.02486195911e-03
1.03437313651e-03
1.03092787329e-03
1.04070124826e-03
1.03924698275e-03
1.03032397478e-03
1.03568116443e-03
1.03240898740e-03
1.03553293904e-03
1.03448470916e-03
1.03905614630e-03
1.03643557508e-03
1.04013077415e-03
1.03850336104e-03
1.06311266258e-03
1.05562968335e-03
1.02711366450e-03
1.03048694942e-03
1.02782752527e-03
1.04154143518e-03
1.05327187884e-03
1.04807817872e-03
1.02817661768e-03
1.04302469133e-03
1.03605789751e-03
1.04365513412e-03
1.03509144910e-03
1.03071930184e-03
1.05483856646e-03
1.06106610283e-03
1.06832866737e-03
1.04163340291e-03
1.05701006037e-03
1.04123905810e-03
1.06573962648e-03
1.06144400162e-03
1.06283050099e-03
1.06854985524e-03
1.04456097220e-03
1.05292433400e-03
1.06169348798e-03
1.03449176569e-03

</DataArray>
<DataArray type="Int64" Name="cell_id" format="ascii">
0
1
2
3
4
5
6
7
8
9
10
11
12
13
14
15
16
17
18
19
20
21
22
23
24
25
26
27
28
29
30
31
32
33
34
35
36
37
38
39
40
41
42
43
44
45
46
47
48
49
50
51
52
53
54
55
56
57
58
59
60
61
62
63
0
1
2
3
4
5
6
7
8
9
10
11
12
13
14
15
16
17
18
19
20
21
22
23
24
25
26
27
28
29
30
31
32
33
34
35
36
37
38
39
40
41
42
43
44
45
46
47
48
49
50
51
52
53
54
55
56
57
58
59
60
61
62
63

</DataArray>
<DataArray type="Float64" Name="contact_traction" NumberOfComponents="3" format="ascii">
1.16716009313e-03
-7.02101085666e-04
-1.70257553866e-03
1.10450953654e-03
-7.46626973364e-04
-1.66648636436e-03
7.68296223101e-04
-4.96030427135e-04
-1.14313526586e-03
1.65235057763e-03
-9.31471035459e-04
-2.37101663365e-03
1.14483132708e-03
-6.96483087325e-04
-1.67505944782e-03
1.15385359847e-03
-6.05238668037e-04
-1.62869386511e-03
1.42686421393e-03
-8.54921204724e-04
-2.07922452164e-03
0.00000000000e+00
0.00000000000e+00
0.00000000000e+00
4.98858660133e-04
-3.02101941671e-04
-7.29003542892e-04
0.00000000000e+00
0.00000000000e+00
0.00000000000e+00
0.00000000000e+00
0.00000000000e+00
0.00000000000e+00
0.00000000000e+00
0.00000000000e+00
0.00000000000e+00
0.00000000000e+00
0.00000000000e+00
0.00000000000e+00
0.00000000000e+00
0.00000000000e+00
0.00000000000e+00
0.00000000000e+00
0.00000000000e+00
0.00000000000e+00
0.00000000000e+00
0.00000000000e+00
0.00000000000e+00
0.00000000000e+00
0.00000000000e+00
0.00000000000e+00
0.00000000000e+00
0.00000000000e+00
0.00000000000e+00
0.00000000000e+00
0.00000000000e+00
0.00000000000e+00
0.00000000000e+00
0.00000000000e+00
0.00000000000e+00
0.00000000000e+00
0.00000000000e+00
0.00000000000e+00
0.00000000000e+00
0.00000000000e+00
0.00000000000e+00
0.00000000000e+00
0.00000000000e+00
0.00000000000e+00
0.00000000000e+00
0.00000000000e+00
0.00000000000e+00
0.00000000000e+00
0.00000000000e+00
0.00000000000e+00
0.00000000000e+00
0.00000000000e+00
0.00000000000e+00
0.00000000000e+00
0.00000000000e+00
0.00000000000e+00
0.00000000000e+00
0.00000000000e+00
0.00000000000e+00
0.00000000000e+00
0.00000000000e+00
0.00000000000e+00
8.63621782834e-04
-6.20911972700e-04
-1.32957597895e-03
5.60774590301e-04
-4.12672011824e-04
-8.70314535877e-04
1.19385204532e-03
-8.00306831714e-04
-1.79659997069e-03
0.00000000000e+00
0.00000000000e+00
0.00000000000e+00
0.00000000000e+00
0.00000000000e+00
0.00000000000e+00
0.00000000000e+00
0.00000000000e+00
0.00000000000e+00
0.00000000000e+00
0.00000000000e+00
0.00000000000e+00
0.00000000000e+00
0.00000000000e+00
0.00000000000e+00
9.05286788362e-04
-6.22822990952e-04
-1.37355187791e-03
2.61517384646e-05
-1.85574698716e-05
-4.00837621573e-05
3.97244793095e-04
-2.88985456612e-04
-6.14049086717e-04
2.77776482831e-04
-1.74141403398e-04
-4.09811318611e-04
9.55838697902e-06
-5.99170862794e-06
-1.41013814662e-05
3.67385593523e-07
-2.25849697334e-07
-5.39067858834e-07
0.00000000000e+00
0.00000000000e+00
0.00000000000e+00
0.00000000000e+00
0.00000000000e+00
0.00000000000e+00
0.00000000000e+00
0.00000000000e+00
0.00000000000e+00
1.83930908489e-04
-1.34461773658e-04
-2.84798579243e-04
0.00000000000e+00
0.00000000000e+00
0.00000000000e+00
0.00000000000e+00
0.00000000000e+00
0.00000000000e+00
6.19471727149e-04
-3.90966170754e-04
-9.15662130143e-04
3.23230502656e-04
-2.14574738318e-04
-4.84961783565e-04
9.48233608181e-04
-6.33898484598e-04
-1.42575323539e-03
0.00000000000e+00
0.00000000000e+00
0.00000000000e+00
0.00000000000e+00
0.00000000000e+00
0.00000000000e+00
0.00000000000e+00
0.00000000000e+00
0.00000000000e+00
0.00000000000e+00
0.00000000000e+00
0.00000000000e+00
0.00000000000e+00
0.00000000000e+00
0.00000000000e+00
0.00000000000e+00
0.00000000000e+00
0.00000000000e+00
0.00000000000e+00
0.00000000000e+00
0.00000000000e+00
0.00000000000e+00
0.00000000000e+00
0.00000000000e+00
0.00000000000e+00
0.00000000000e+00
0.00000000000e+00
0.00000000000e+00
0.00000000000e+00
0.00000000000e+00
0.00000000000e+00
0.00000000000e+00
0.00000000000e+00
0.00000000000e+00
0.00000000000e+00
0.00000000000e+00
3.13493837293e-04
-2.79020577222e-04
-5.24599599601e-04
8.77556489577e-04
-7.04184826674e-04
-1.40644836540e-03
6.24389325737e-04
-5.26591219203e-04
-1.02099884263e-03
1.56448498423e-05
-1.26718793625e-05
-2.51666601880e-05
0.00000000000e+00
0.00000000000e+00
0.00000000000e+00
0.00000000000e+00
0.00000000000e+00
0.00000000000e+00
0.00000000000e+00
0.00000000000e+00
0.00000000000e+00
0.00000000000e+00
0.00000000000e+00
0.00000000000e+00
0.00000000000e+00
0.00000000000e+00
0.00000000000e+00
0.00000000000e+00
0.00000000000e+00
0.00000000000e+00
0.00000000000e+00
0.00000000000e+00
0.00000000000e+00
1.22713175125e-04
-7.67348314740e-05
-1.80913181544e-04
0.00000000000e+00
0.00000000000e+00
0.00000000000e+00
4.88640641202e-04
-2.86336494084e-04
-7.07944799258e-04
0.00000000000e+00
0.00000000000e+00
0.00000000000e+00
1.17689747047e-03
-6.63218886753e-04
-1.68863295185e-03
4.00526619776e-04
-2.32921709533e-04
-5.79162492486e-04
1.45802195949e-03
-8.20497118699e-04
-2.09129323031e-03
9.64161416281e-04
-5.40705461174e-04
-1.38178473106e-03
1.17229406711e-03
-6.28458665912e-04
-1.66265719687e-03
1.27274931411e-03
-7.59198266438e-04
-1.85247885275e-03
1.03585187628e-03
-6.20583179547e-04
-1.50940453508e-03
9.91545567894e-04
-6.07268162033e-04
-1.45341085493e-03
0.00000000000e+00
0.00000000000e+00
0.00000000000e+00
7.41687031562e-04
-5.14826599031e-04
-1.12856845703e-03
0.00000000000e+00
0.00000000000e+00
0.00000000000e+00
0.00000000000e+00
0.00000000000e+00
0.00000000000e+00
7.81839811866e-04
-6.51767948046e-04
-1.27234738040e-03
2.59234586416e-04
-2.15844400477e-04
-4.21662648043e-04
8.50226725867e-04
-7.36473539478e-04
-1.40605785198e-03
7.34167162950e-04
-6.18003734591e-04
-1.19956402556e-03
7.68591590076e-04
-6.80933050297e-04
-1.28355173164e-03
1.80327485168e-04
-1.37783474018e-04
-2.83677094955e-04
2.11297043363e-04
-1.58427269828e-04
-3.30118073536e-04
1.65344300606e-04
-1.32611449209e-04
-2.64943118756e-04
0.00000000000e+00
0.00000000000e+00
0.00000000000e+00
0.00000000000e+00
0.00000000000e+00
0.00000000000e+00
0.00000000000e+00
0.00000000000e+00
0.00000000000e+00
3.82716502262e-04
-2.46874162812e-04
-5.69291481523e-04
1.33364023622e-04
-8.82406580949e-05
-1.99892868655e-04
5.09473671712e-04
-3.32359673523e-04
-7.60372967703e-04
0.00000000000e+00
0.00000000000e+00
0.00000000000e+00
0.00000000000e+00
0.00000000000e+00
0.00000000000e+00
0.00000000000e+00
0.00000000000e+00
0.00000000000e+00
0.00000000000e+00
0.00000000000e+00
0.00000000000e+00
0.00000000000e+00
0.00000000000e+00
0.00000000000e+00
0.00000000000e+00
0.00000000000e+00
0.00000000000e+00
0.00000000000e+00
0.00000000000e+00
0.00000000000e+00
1.39949327399e-04
-1.01202324142e-04
-2.15884611263e-04
5.57354526054e-04
-3.74538353963e-04
-8.39385547676e-04
0.00000000000e+00
0.00000000000e+00
0.00000000000e+00
0.00000000000e+00
0.00000000000e+00
0.00000000000e+00
0.00000000000e+00
0.00000000000e+00
0.00000000000e+00
8.57864682635e-05
-7.40299353701e-05
-1.41641235860e-04
0.00000000000e+00
0.00000000000e+00
0.00000000000e+00
5.01820532095e-06
-4.11611111671e-06
-8.11345997111e-06
0.00000000000e+00
0.00000000000e+00
0.00000000000e+00
0.00000000000e+00
0.00000000000e+00
0.00000000000e+00
0.00000000000e+00
0.00000000000e+00
0.00000000000e+00
0.00000000000e+00
0.00000000000e+00
0.00000000000e+00
0.00000000000e+00
0.00000000000e+00
0.00000000000e+00
0.00000000000e+00
0.00000000000e+00
0.00000000000e+00
0.00000000000e+00
0.00000000000e+00
0.00000000000e+00
2.54394241474e-05
-1.81414028976e-05
-3.90579514637e-05

</DataArray>
<DataArray type="Int64" Name="grid_dim" format="ascii">
2
2
2
2
2
2
2
2
2
2
2
2
2
2
2
2
2
2
2
2
2
2
2
2
2
2
2
2
2
2
2
2
2
2
2
2
2
2
2
2
2
2
2
2
2
2
2
2
2
2
2
2
2
2
2
2
2
2
2
2
2
2
2
2
2
2
2
2
2
2
2
2
2
2
2
2
2
2
2
2
2
2
2
2
2
2
2
2
2
2
2
2
2
2
2
2
2
2
2
2
2
2
2
2
2
2
2
2
2
2
2
2
2
2
2
2
2
2
2
2
2
2
2
2
2
2
2
2

</DataArray>
<DataArray type="Int64" Name="is_mortar" format="ascii">
0
0
0
0
0
0
0
0
0
0
0
0
0
0
0
0
0
0
0
0
0
0
0
0
0
0
0
0
0
0
0
0
0
0
0
0
0
0
0
0
0
0
0
0
0
0
0
0
0
0
0
0
0
0
0
0
0
0
0
0
0
0
0
0
0
0
0
0
0
0
0
0
0
0
0
0
0
0
0
0
0
0
0
0
0
0
0
0
0
0
0
0
0
0
0
0
0
0
0
0
0
0
0
0
0
0
0
0
0
0
0
0
0
0
0
0
0
0
0
0
0
0
0
0
0
0
0
0

</DataArray>
<DataArray type="Int64" Name="mortar_side" format="ascii">
0
0
0
0
0
0
0
0
0
0
0
0
0
0
0
0
0
0
0
0
0
0
0
0
0
0
0
0
0
0
0
0
0
0
0
0
0
0
0
0
0
0
0
0
0
0
0
0
0
0
0
0
0
0
0
0
0
0
0
0
0
0
0
0
0
0
0
0
0
0
0
0
0
0
0
0
0
0
0
0
0
0
0
0
0
0
0
0
0
0
0
0
0
0
0
0
0
0
0
0
0
0
0
0
0
0
0
0
0
0
0
0
0
0
0
0
0
0
0
0
0
0
0
0
0
0
0
0

</DataArray>
<DataArray type="Float64" Name="pressure" format="ascii">
2.85711825581e+07
3.01434266469e+07
2.93476146381e+07
2.71918310972e+07
2.80304443782e+07
2.59752653464e+07
2.68201260815e+07
2.55209878323e+07
2.60751104343e+07
2.54448228938e+07
2.58697754155e+07
2.61079788131e+07
2.61316589751e+07
2.70580280120e+07
2.68190364695e+07
2.85422464720e+07
2.78677051675e+07
3.01462092057e+07
2.93214609467e+07
3.15370815694e+07
3.06818706277e+07
3.27587241494e+07
3.19087866067e+07
3.31979941071e+07
3.26438715280e+07
3.33678122801e+07
3.29278522721e+07
3.26866458599e+07
3.27416115737e+07
3.16247108662e+07
3.19243381522e+07
3.07667179023e+07
2.77781304065e+07
2.76287136304e+07
2.85331543010e+07
2.92387731792e+07
2.95019552977e+07
2.92894187834e+07
2.99275425338e+07
3.06090296950e+07
2.70476872747e+07
2.74682016469e+07
2.68444123917e+07
3.17285181675e+07
3.14419974096e+07
3.20872089350e+07
3.12800922926e+07
3.20151308237e+07
3.13159192007e+07
2.74675954909e+07
2.83550384923e+07
2.85461823636e+07
2.69921334084e+07
3.13185406785e+07
3.05533961070e+07
3.02884310941e+07
2.90929772630e+07
2.90932716420e+07
2.83709465547e+07
2.99222448915e+07
2.99765393635e+07
3.06935590482e+07
3.06395589574e+07
2.99598331552e+07
2.85830796312e+07
3.01628030345e+07
2.93788917363e+07
2.71007097467e+07
2.79512238856e+07
2.60691457244e+07
2.68228889757e+07
2.53835692108e+07
2.60315761074e+07
2.54496833890e+07
2.57372212372e+07
2.59752613519e+07
2.60038059736e+07
2.71969039199e+07
2.68251988912e+07
2.85711786406e+07
2.80355172243e+07
3.01290239131e+07
2.93332117992e+07
3.16097014146e+07
3.07373091386e+07
3.26020266845e+07
3.18247129112e+07
3.34073375294e+07
3.26965213571e+07
3.31979902905e+07
3.29673774891e+07
3.27187245558e+07
3.26038719138e+07
3.15633235801e+07
3.18950328184e+07
3.07247102599e+07
3.15961625659e+07
3.22565613091e+07
3.17128603656e+07
2.68306315251e+07
2.65294334694e+07
2.70687211738e+07
2.92183216043e+07
2.97851651091e+07
3.05083405270e+07
2.94741852288e+07
2.88207058358e+07
2.80935565943e+07
2.84945609115e+07
2.81576657337e+07
2.73269170170e+07
3.09049103283e+07
3.07552881252e+07
3.11091866361e+07
2.74517793513e+07
2.73760857710e+07
2.67096257778e+07
3.02460698677e+07
3.05187790723e+07
3.13291286963e+07
2.87575247664e+07
2.94435125921e+07
3.02112585029e+07
2.79546819455e+07
2.92333288403e+07
2.84201687252e+07
2.78275096572e+07
2.98514525457e+07

</DataArray>
<DataArray type="Float64" Name="specific_volume" format="ascii">
1.01579606458e-03
1.01567877143e-03
1.01987901671e-03
1.01829339230e-03
1.02217128472e-03
1.02404385971e-03
1.02470777245e-03
1.04206103930e-03
1.03285065345e-03
1.04866248866e-03
1.04683576666e-03
1.04979640752e-03
1.04260484366e-03
1.04261271704e-03
1.06888125231e-03
1.06484276614e-03
1.05731835924e-03
1.07238702669e-03
1.07460018172e-03
1.07612642742e-03
1.08799800318e-03
1.09052880409e-03
1.09631810279e-03
1.07036830894e-03
1.08743228037e-03
1.03753329257e-03
1.05882877720e-03
1.02128523438e-03
1.04121461389e-03
1.01600151259e-03
1.02008643032e-03
1.01877162601e-03
1.09360696642e-03
1.09334535148e-03
1.09845924433e-03
1.11175734848e-03
1.09739035224e-03
1.02642511510e-03
1.03021244397e-03
1.02643495350e-03
1.03861479892e-03
1.04291751861e-03
1.04299042268e-03
1.09826118718e-03
1.07520070074e-03
1.05497062686e-03
1.02694863742e-03
1.04857605270e-03
1.04223938464e-03
1.03419536906e-03
1.03473381784e-03
1.02816604863e-03
1.04941303805e-03
1.11591191590e-03
1.11381458148e-03
1.10063653932e-03
1.05182551931e-03
1.05823465787e-03
1.06505503303e-03
1.04649727667e-03
1.07778352347e-03
1.06617804171e-03
1.05353035134e-03
1.10724912468e-03
1.02996321434e-03
1.03087875616e-03
1.03496900578e-03
1.02862713068e-03
1.03479122566e-03
1.04553541627e-03
1.05260505646e-03
1.05001498656e-03
1.05348718883e-03
1.04100908171e-03
1.06160401369e-03
1.01548115859e-03
1.03102778022e-03
1.01518774449e-03
1.02039577247e-03
1.01415729635e-03
1.01909874708e-03
1.01511639047e-03
1.01952726746e-03
1.01725825935e-03
1.02031005994e-03
1.02360306801e-03
1.02486195911e-03
1.03437313651e-03
1.03092787329e-03
1.04070124826e-03
1.03924698275e-03
1.03032397478e-03
1.03568116443e-03
1.03240898740e-03
1.03553293904e-03
1.03448470916e-03
1.03905614630e-03
1.03643557508e-03
1.04013077415e-03
1.03850336104e-03
1.06311266258e-03
1.05562968335e-03
1.02711366450e-03
1.03048694942e-03
1.02782752527e-03
1.04154143518e-03
1.05327187884e-03
1.04807817872e-03
1.02817661768e-03
1.04302469133e-03
1.03605789751e-03
1.04365513412e-03
1.03509144910e-03
1.03071930184e-03
1.05483856646e-03
1.06106610283e-03
1.06832866737e-03
1.04163340291e-03
1.05701006037e-03
1.04123905810e-03
1.06573962648e-03
1.06144400162e-03
1.06283050099e-03
1.06854985524e-03
1.04456097220e-03
1.05292433400e-03
1.06169348798e-03
1.03449176569e-03

</DataArray>
<DataArray type="Int64" Name="states" format="ascii">
1
1
1
1
1
1
1
2
1
2
2
2
2
2
2
2
2
2
2
2
2
2
2
2
2
2
2
2
2
1
1
1
2
2
2
2
2
1
1
1
1
1
1
2
2
2
1
2
2
1
1
1
2
2
2
2
2
2
2
2
2
2
2
2
0
0
0
0
2
2
2
2
2
2
2
0
2
0
2
0
0
0
0
0
0
0
0
2
0
2
2
0
0
0
0
0
0
0
0
2
2
2
0
0
0
2
2
2
2
2
2
2
0
0
2
2
2
0
2
0
2
2
2
2
2
2
2
0

</DataArray>
<DataArray type="Int64" Name="subdomain_id" format="ascii">
5
5
5
5
5
5
5
5
5
5
5
5
5
5
5
5
5
5
5
5
5
5
5
5
5
5
5
5
5
5
5
5
5
5
5
5
5
5
5
5
5
5
5
5
5
5
5
5
5
5
5
5
5
5
5
5
5
5
5
5
5
5
5
5
6
6
6
6
6
6
6
6
6
6
6
6
6
6
6
6
6
6
6
6
6
6
6
6
6
6
6
6
6
6
6
6
6
6
6
6
6
6
6
6
6
6
6
6
6
6
6
6
6
6
6
6
6
6
6
6
6
6
6
6
6
6
6
6

</DataArray>
</CellData>
</Piece>
</UnstructuredGrid>
</VTKFile>
