<?xml version="1.0"?>
<VTKFile type="UnstructuredGrid" version="0.1" byte_order="LittleEndian">
<!--This file was created by meshio v5.3.5-->
<UnstructuredGrid>
<Piece NumberOfPoints="82" NumberOfCells="128">
<Points>
<DataArray type="Float64" Name="Points" NumberOfComponents="3" format="ascii">
-3.62777204087e+01
5.93338573254e+02
-3.00000000000e+03
-8.19500009019e+01
7.40929074508e+02
-2.82410848990e+03
-2.12013651697e+02
8.66050259858e+02
-2.67499486775e+03
-4.06667660990e+02
9.49653563059e+02
-2.57536033081e+03
-6.36277720409e+02
9.79011139066e+02
-2.54037333413e+03
-8.65887779828e+02
9.49653563059e+02
-2.57536033081e+03
-1.06054178912e+03
8.66050259858e+02
-2.67499486775e+03
-1.19060543992e+03
7.40929074508e+02
-2.82410848990e+03
-1.23627772041e+03
5.93338573254e+02
-3.00000000000e+03
-1.19060543992e+03
4.45748072000e+02
-3.17589151010e+03
-1.06054178912e+03
3.20626886651e+02
-3.32500513225e+03
-8.65887779828e+02
2.37023583450e+02
-3.42463966919e+03
-6.36277720409e+02
2.07666007442e+02
-3.45962666587e+03
-4.06667660990e+02
2.37023583450e+02
-3.42463966919e+03
-2.12013651697e+02
3.20626886651e+02
-3.32500513225e+03
-8.19500009019e+01
4.45748072000e+02
-3.17589151010e+03
-9.82301878795e+02
6.57836979237e+02
-2.92313379295e+03
-2.35388105079e+02
5.41264947208e+02
-3.06205893092e+03
-5.69871316028e+02
8.40374504474e+02
-2.70559404147e+03
-7.11529394962e+02
3.50161918889e+02
-3.28980665147e+03
-4.01907468113e+02
3.68697219987e+02
-3.26771713980e+03
-3.01147993968e+02
7.32392613644e+02
-2.83428184780e+03
-8.72831799617e+02
8.02387168171e+02
-2.75086558598e+03
-9.56998297522e+02
4.55590063739e+02
-3.16416228109e+03
-3.83495241035e+02
8.36515227620e+02
-2.71019334853e+03
-5.24957334276e+02
6.99549662937e+02
-2.87342255230e+03
-3.68806365849e+02
6.08303991849e+02
-2.98216490863e+03
-5.60624169490e+02
5.42627281744e+02
-3.06043536384e+03
-7.57039155452e+02
6.08228297855e+02
-2.98225511721e+03
-7.59403827432e+02
4.72412129709e+02
-3.14411452353e+03
-7.22504460330e+02
7.28377464595e+02
-2.83906691610e+03
-2.64377961448e+02
4.33055503539e+02
-3.19101792417e+03
-8.89060199783e+02
3.50161918889e+02
-3.28980665147e+03
-7.33474615242e+02
8.59960767873e+02
-2.68225204170e+03
-1.02657022686e+03
7.66800870444e+02
-2.79327568415e+03
-1.06255581105e+03
5.40549452857e+02
-3.06291162388e+03
-1.90023907337e+02
6.50395874092e+02
-2.93200175674e+03
-5.47512317998e+02
3.06492151437e+02
-3.34185025372e+03
-5.83826678727e+02
4.23842427026e+02
-3.20199764120e+03
-9.03659794049e+02
5.46923384679e+02
-3.05531546774e+03
-4.02488458118e+02
4.86298561892e+02
-3.12756531809e+03
1.39247167980e+02
4.29658966839e+02
-3.00000000000e+03
9.35748874867e+01
5.77249468093e+02
-2.82410848990e+03
-3.64887633081e+01
7.02370653443e+02
-2.67499486775e+03
-2.31142772601e+02
7.85973956644e+02
-2.57536033081e+03
-4.60752832020e+02
8.15331532651e+02
-2.54037333413e+03
-6.90362891439e+02
7.85973956644e+02
-2.57536033081e+03
-8.85016900732e+02
7.02370653443e+02
-2.67499486775e+03
-1.01508055153e+03
5.77249468093e+02
-2.82410848990e+03
-1.06075283202e+03
4.29658966839e+02
-3.00000000000e+03
-1.01508055153e+03
2.82068465585e+02
-3.17589151010e+03
-8.85016900732e+02
1.56947280236e+02
-3.32500513225e+03
-6.90362891439e+02
7.33439770346e+01
-3.42463966919e+03
-4.60752832020e+02
4.39864010275e+01
-3.45962666587e+03
-2.31142772601e+02
7.33439770346e+01
-3.42463966919e+03
-3.64887633081e+01
1.56947280236e+02
-3.32500513225e+03
9.35748874867e+01
2.82068465585e+02
-3.17589151010e+03
-3.85501157466e+02
1.86482312474e+02
-3.28980665147e+03
-5.42147648576e+02
6.95030235725e+02
-2.68374283693e+03
-8.39068547352e+02
3.81288122828e+02
-3.05764612713e+03
-7.08121434506e+01
4.83655900143e+02
-2.93564896075e+03
-7.81473409133e+02
5.67407476355e+02
-2.83583771891e+03
-6.34476559427e+02
2.26776986862e+02
-3.24178532851e+03
-2.34565328910e+02
6.48692719502e+02
-2.73896573837e+03
-1.42041358264e+02
2.85161188911e+02
-3.17220574597e+03
-1.44990189488e+01
3.72601666001e+02
-3.06799824326e+03
-2.65198556211e+02
4.05153668847e+02
-3.02920427692e+03
-2.55159122143e+02
5.40647758235e+02
-2.86772870912e+03
-4.63043301905e+02
4.99903277397e+02
-2.91628609053e+03
-5.29764428503e+02
3.64241917225e+02
-3.07796100389e+03
-6.80842827495e+02
4.59203661243e+02
-2.96479000430e+03
-3.76782071951e+02
3.02472868463e+02
-3.15157448967e+03
-8.24371166880e+01
5.92144412527e+02
-2.80635738636e+03
-7.13535311394e+02
6.72835621205e+02
-2.71019334853e+03
-3.74101443840e+02
7.12031896534e+02
-2.66348104659e+03
-9.07006645091e+02
4.86716267677e+02
-2.93200175674e+03
-8.20248311744e+02
2.73234816746e+02
-3.18641904284e+03
-2.26842404126e+02
1.96767464581e+02
-3.27754928450e+03
-5.42773360088e+02
1.32647419350e+02
-3.35396457876e+03
-6.10120761438e+02
5.73350861291e+02
-2.82875466856e+03
-7.00880134904e+02
3.40949100981e+02
-3.10572030134e+03
-4.13189601135e+02
6.11609458114e+02
-2.78315984835e+03

</DataArray>
</Points>
<Cells>
<DataArray type="Int64" Name="connectivity" format="ascii">
0
1
36
0
15
17
0
17
36
1
2
21
1
21
36
2
3
24
2
21
24
3
4
18
3
18
24
4
5
33
4
18
33
5
6
22
5
22
33
6
7
34
6
22
34
7
8
16
7
16
34
8
9
35
8
16
35
9
10
23
9
23
35
10
11
32
10
23
32
11
12
19
11
19
32
12
13
37
12
19
37
13
14
20
13
20
37
14
15
31
14
20
31
15
17
31
16
22
30
16
22
34
16
28
30
16
28
39
16
35
39
17
26
36
17
26
40
17
31
40
18
24
25
18
25
30
18
30
33
19
29
32
19
29
38
19
37
38
20
31
40
20
37
38
20
38
40
21
24
25
21
25
26
21
26
36
22
30
33
23
29
32
23
29
39
23
35
39
25
26
27
25
27
28
25
28
30
26
27
40
27
28
29
27
29
38
27
38
40
28
29
39
41
42
60
41
56
65
41
60
65
42
43
72
42
60
72
43
44
63
43
63
72
44
45
74
44
63
74
45
46
58
45
58
74
46
47
73
46
58
73
47
48
61
47
61
73
48
49
75
48
61
75
49
50
59
49
59
75
50
51
76
50
59
76
51
52
62
51
62
76
52
53
78
52
62
78
53
54
57
53
57
78
54
55
77
54
57
77
55
56
64
55
64
77
56
64
65
57
62
71
57
62
78
57
71
77
58
73
79
58
74
81
58
79
81
59
70
75
59
70
80
59
76
80
60
65
66
60
66
67
60
67
72
61
70
75
61
70
79
61
73
79
62
69
71
62
69
80
62
76
80
63
67
72
63
67
81
63
74
81
64
65
66
64
66
71
64
71
77
66
67
68
66
68
69
66
69
71
67
68
81
68
69
70
68
70
79
68
79
81
69
70
80

</DataArray>
<DataArray type="Int64" Name="offsets" format="ascii">
3
6
9
12
15
18
21
24
27
30
33
36
39
42
45
48
51
54
57
60
63
66
69
72
75
78
81
84
87
90
93
96
99
102
105
108
111
114
117
120
123
126
129
132
135
138
141
144
147
150
153
156
159
162
165
168
171
174
177
180
183
186
189
192
195
198
201
204
207
210
213
216
219
222
225
228
231
234
237
240
243
246
249
252
255
258
261
264
267
270
273
276
279
282
285
288
291
294
297
300
303
306
309
312
315
318
321
324
327
330
333
336
339
342
345
348
351
354
357
360
363
366
369
372
375
378
381
384

</DataArray>
<DataArray type="Int64" Name="types" format="ascii">
5
5
5
5
5
5
5
5
5
5
5
5
5
5
5
5
5
5
5
5
5
5
5
5
5
5
5
5
5
5
5
5
5
5
5
5
5
5
5
5
5
5
5
5
5
5
5
5
5
5
5
5
5
5
5
5
5
5
5
5
5
5
5
5
5
5
5
5
5
5
5
5
5
5
5
5
5
5
5
5
5
5
5
5
5
5
5
5
5
5
5
5
5
5
5
5
5
5
5
5
5
5
5
5
5
5
5
5
5
5
5
5
5
5
5
5
5
5
5
5
5
5
5
5
5
5
5
5

</DataArray>
</Cells>
<PointData>
<DataArray type="Int64" Name="node_id" format="ascii">
0
1
2
3
4
5
6
7
8
9
10
11
12
13
14
15
16
17
18
19
20
21
22
23
24
25
26
27
28
29
30
31
32
33
34
35
36
37
38
39
40
0
1
2
3
4
5
6
7
8
9
10
11
12
13
14
15
16
17
18
19
20
21
22
23
24
25
26
27
28
29
30
31
32
33
34
35
36
37
38
39
40

</DataArray>
</PointData>
<CellData>
<DataArray type="Float64" Name="aperture" format="ascii">
1.01855851610e-03
1.01943591719e-03
1.02951566927e-03
1.02137750745e-03
1.02625204869e-03
1.03582322998e-03
1.02926770375e-03
1.09242983191e-03
1.07182388057e-03
1.10573744239e-03
1.10814429627e-03
1.10964466620e-03
1.11017007079e-03
1.09401294977e-03
1.13040224134e-03
1.12695951472e-03
1.12367963671e-03
1.12888479275e-03
1.14315849226e-03
1.12994906178e-03
1.15243428462e-03
1.14462448753e-03
1.15895352566e-03
1.13008809769e-03
1.15458800540e-03
1.07982343404e-03
1.12195609935e-03
1.06791224552e-03
1.09813064536e-03
1.04236422326e-03
1.06444406461e-03
1.03426629708e-03
1.18007887467e-03
1.17013612149e-03
1.19367643065e-03
1.20432547059e-03
1.17855422588e-03
1.05309970211e-03
1.09505617681e-03
1.07918051463e-03
1.09831550941e-03
1.12914323267e-03
1.12349544355e-03
1.18260514625e-03
1.16736060733e-03
1.13811466013e-03
1.09365281421e-03
1.12874495592e-03
1.12874207846e-03
1.07467115267e-03
1.09136133647e-03
1.05016909605e-03
1.13206602427e-03
1.19905781759e-03
1.20307110569e-03
1.18030897119e-03
1.14157971431e-03
1.16214418860e-03
1.16559362890e-03
1.13502527281e-03
1.18074007456e-03
1.16651420440e-03
1.15045759260e-03
1.20460570574e-03
1.06245945225e-03
1.04322982625e-03
1.06013939221e-03
1.07030519214e-03
1.08132838409e-03
1.08894392598e-03
1.10179926304e-03
1.07836090297e-03
1.09491740022e-03
1.04863873826e-03
1.08049692645e-03
1.01557298776e-03
1.03005806601e-03
1.01518774449e-03
1.01916554356e-03
1.01415729635e-03
1.01909874708e-03
1.01511639047e-03
1.01952726746e-03
1.01725825935e-03
1.02031005994e-03
1.02455883381e-03
1.02486195911e-03
1.06086460152e-03
1.03244109939e-03
1.07073761957e-03
1.06557774974e-03
1.04162324644e-03
1.05992599504e-03
1.04168618501e-03
1.04796203760e-03
1.04885626954e-03
1.04025004394e-03
1.04359114334e-03
1.05341645820e-03
1.03401123290e-03
1.08240569420e-03
1.05917835671e-03
1.02711366450e-03
1.03048694942e-03
1.02782752527e-03
1.08359525110e-03
1.09583354415e-03
1.09967103910e-03
1.02740715294e-03
1.03225723839e-03
1.02787595463e-03
1.03926184361e-03
1.03509144910e-03
1.03071930184e-03
1.10612492012e-03
1.10100265988e-03
1.10552509175e-03
1.07467168248e-03
1.07825804402e-03
1.06206149444e-03
1.08727983424e-03
1.06268690141e-03
1.06544208715e-03
1.08880706271e-03
1.03672091891e-03
1.04322790400e-03
1.06313785073e-03
1.03449176569e-03

</DataArray>
<DataArray type="Int64" Name="cell_id" format="ascii">
0
1
2
3
4
5
6
7
8
9
10
11
12
13
14
15
16
17
18
19
20
21
22
23
24
25
26
27
28
29
30
31
32
33
34
35
36
37
38
39
40
41
42
43
44
45
46
47
48
49
50
51
52
53
54
55
56
57
58
59
60
61
62
63
0
1
2
3
4
5
6
7
8
9
10
11
12
13
14
15
16
17
18
19
20
21
22
23
24
25
26
27
28
29
30
31
32
33
34
35
36
37
38
39
40
41
42
43
44
45
46
47
48
49
50
51
52
53
54
55
56
57
58
59
60
61
62
63

</DataArray>
<DataArray type="Float64" Name="contact_traction" NumberOfComponents="3" format="ascii">
4.62546069322e-04
-3.47242555735e-04
-7.22978062814e-04
7.60308650788e-06
-6.78957295884e-06
-1.27417390769e-05
0.00000000000e+00
0.00000000000e+00
0.00000000000e+00
8.37714978165e-04
-4.42251476669e-04
-1.18410881129e-03
2.60979792039e-04
-1.77073342825e-04
-3.94226736377e-04
0.00000000000e+00
0.00000000000e+00
0.00000000000e+00
1.73659264866e-04
-9.69410991715e-05
-2.48605853280e-04
0.00000000000e+00
0.00000000000e+00
0.00000000000e+00
0.00000000000e+00
0.00000000000e+00
0.00000000000e+00
0.00000000000e+00
0.00000000000e+00
0.00000000000e+00
0.00000000000e+00
0.00000000000e+00
0.00000000000e+00
0.00000000000e+00
0.00000000000e+00
0.00000000000e+00
0.00000000000e+00
0.00000000000e+00
0.00000000000e+00
0.00000000000e+00
0.00000000000e+00
0.00000000000e+00
0.00000000000e+00
0.00000000000e+00
0.00000000000e+00
0.00000000000e+00
0.00000000000e+00
0.00000000000e+00
0.00000000000e+00
0.00000000000e+00
0.00000000000e+00
0.00000000000e+00
0.00000000000e+00
0.00000000000e+00
0.00000000000e+00
0.00000000000e+00
0.00000000000e+00
0.00000000000e+00
0.00000000000e+00
0.00000000000e+00
0.00000000000e+00
0.00000000000e+00
0.00000000000e+00
0.00000000000e+00
0.00000000000e+00
0.00000000000e+00
0.00000000000e+00
0.00000000000e+00
0.00000000000e+00
0.00000000000e+00
0.00000000000e+00
0.00000000000e+00
0.00000000000e+00
0.00000000000e+00
0.00000000000e+00
0.00000000000e+00
0.00000000000e+00
0.00000000000e+00
0.00000000000e+00
0.00000000000e+00
0.00000000000e+00
0.00000000000e+00
0.00000000000e+00
0.00000000000e+00
0.00000000000e+00
0.00000000000e+00
0.00000000000e+00
0.00000000000e+00
0.00000000000e+00
0.00000000000e+00
0.00000000000e+00
0.00000000000e+00
0.00000000000e+00
0.00000000000e+00
0.00000000000e+00
0.00000000000e+00
0.00000000000e+00
0.00000000000e+00
0.00000000000e+00
0.00000000000e+00
0.00000000000e+00
0.00000000000e+00
0.00000000000e+00
0.00000000000e+00
0.00000000000e+00
0.00000000000e+00
0.00000000000e+00
0.00000000000e+00
0.00000000000e+00
0.00000000000e+00
0.00000000000e+00
0.00000000000e+00
0.00000000000e+00
0.00000000000e+00
0.00000000000e+00
0.00000000000e+00
0.00000000000e+00
0.00000000000e+00
0.00000000000e+00
0.00000000000e+00
0.00000000000e+00
0.00000000000e+00
0.00000000000e+00
0.00000000000e+00
0.00000000000e+00
0.00000000000e+00
0.00000000000e+00
0.00000000000e+00
0.00000000000e+00
0.00000000000e+00
0.00000000000e+00
0.00000000000e+00
0.00000000000e+00
0.00000000000e+00
0.00000000000e+00
0.00000000000e+00
0.00000000000e+00
0.00000000000e+00
0.00000000000e+00
0.00000000000e+00
0.00000000000e+00
0.00000000000e+00
0.00000000000e+00
0.00000000000e+00
0.00000000000e+00
0.00000000000e+00
0.00000000000e+00
0.00000000000e+00
0.00000000000e+00
0.00000000000e+00
0.00000000000e+00
0.00000000000e+00
0.00000000000e+00
0.00000000000e+00
0.00000000000e+00
0.00000000000e+00
0.00000000000e+00
0.00000000000e+00
0.00000000000e+00
0.00000000000e+00
0.00000000000e+00
0.00000000000e+00
0.00000000000e+00
0.00000000000e+00
0.00000000000e+00
0.00000000000e+00
0.00000000000e+00
0.00000000000e+00
0.00000000000e+00
0.00000000000e+00
0.00000000000e+00
0.00000000000e+00
0.00000000000e+00
0.00000000000e+00
0.00000000000e+00
0.00000000000e+00
0.00000000000e+00
0.00000000000e+00
0.00000000000e+00
0.00000000000e+00
0.00000000000e+00
0.00000000000e+00
0.00000000000e+00
0.00000000000e+00
0.00000000000e+00
0.00000000000e+00
0.00000000000e+00
0.00000000000e+00
0.00000000000e+00
0.00000000000e+00
0.00000000000e+00
0.00000000000e+00
0.00000000000e+00
0.00000000000e+00
0.00000000000e+00
0.00000000000e+00
0.00000000000e+00
0.00000000000e+00
0.00000000000e+00
0.00000000000e+00
0.00000000000e+00
0.00000000000e+00
0.00000000000e+00
0.00000000000e+00
0.00000000000e+00
0.00000000000e+00
0.00000000000e+00
0.00000000000e+00
0.00000000000e+00
0.00000000000e+00
0.00000000000e+00
0.00000000000e+00
0.00000000000e+00
0.00000000000e+00
0.00000000000e+00
0.00000000000e+00
0.00000000000e+00
0.00000000000e+00
0.00000000000e+00
0.00000000000e+00
0.00000000000e+00
0.00000000000e+00
0.00000000000e+00
0.00000000000e+00
0.00000000000e+00
2.20182735277e-05
-3.05937835080e-04
-3.83411420879e-04
0.00000000000e+00
0.00000000000e+00
0.00000000000e+00
2.31788135416e-04
-4.05893197403e-04
-1.00440311758e-03
-1.08103035361e-04
-2.68513512223e-04
-4.18556644429e-04
7.94058401612e-04
-6.58265198783e-04
-1.84188564780e-03
1.88652056726e-04
-3.84309633135e-04
-9.57354790563e-04
1.06270481093e-03
-5.88153014729e-04
-2.15021640685e-03
6.64474353646e-04
-4.66638649840e-04
-1.59458217701e-03
9.24421100466e-04
-2.26861156615e-04
-1.44103799539e-03
1.01334003888e-03
-4.51571088748e-04
-2.00522497676e-03
6.32291042880e-04
-4.52931842540e-05
-7.92389025596e-04
1.02588933703e-03
-1.29622313660e-04
-1.29956013244e-03
0.00000000000e+00
0.00000000000e+00
0.00000000000e+00
1.23532875570e-04
2.57961002383e-06
-1.54449757883e-04
0.00000000000e+00
0.00000000000e+00
0.00000000000e+00
0.00000000000e+00
0.00000000000e+00
0.00000000000e+00
0.00000000000e+00
0.00000000000e+00
0.00000000000e+00
0.00000000000e+00
0.00000000000e+00
0.00000000000e+00
0.00000000000e+00
0.00000000000e+00
0.00000000000e+00
0.00000000000e+00
0.00000000000e+00
0.00000000000e+00
0.00000000000e+00
0.00000000000e+00
0.00000000000e+00
0.00000000000e+00
0.00000000000e+00
0.00000000000e+00
0.00000000000e+00
0.00000000000e+00
0.00000000000e+00
0.00000000000e+00
0.00000000000e+00
0.00000000000e+00
0.00000000000e+00
0.00000000000e+00
0.00000000000e+00
0.00000000000e+00
0.00000000000e+00
0.00000000000e+00
0.00000000000e+00
0.00000000000e+00
0.00000000000e+00
2.76406512167e-04
-2.19776452476e-04
-1.11419876428e-03
9.88681115646e-05
3.72989529773e-05
-8.84829558423e-04
4.16680663686e-04
-1.12165354699e-04
-1.20313577778e-03
0.00000000000e+00
0.00000000000e+00
0.00000000000e+00
0.00000000000e+00
0.00000000000e+00
0.00000000000e+00
0.00000000000e+00
0.00000000000e+00
0.00000000000e+00
-7.57276654319e-05
-1.33391071816e-04
-6.38895750458e-04
0.00000000000e+00
0.00000000000e+00
0.00000000000e+00
0.00000000000e+00
0.00000000000e+00
0.00000000000e+00
2.47142683041e-05
1.93004019689e-05
-3.91970298215e-05
4.13782159923e-04
2.66953567773e-04
-8.37327699422e-04
5.91498499470e-04
-3.90313401158e-05
-1.13209015042e-03
0.00000000000e+00
0.00000000000e+00
0.00000000000e+00
0.00000000000e+00
0.00000000000e+00
0.00000000000e+00
0.00000000000e+00
0.00000000000e+00
0.00000000000e+00
0.00000000000e+00
0.00000000000e+00
0.00000000000e+00
0.00000000000e+00
0.00000000000e+00
0.00000000000e+00
0.00000000000e+00
0.00000000000e+00
0.00000000000e+00
0.00000000000e+00
0.00000000000e+00
0.00000000000e+00
0.00000000000e+00
0.00000000000e+00
0.00000000000e+00
0.00000000000e+00
0.00000000000e+00
0.00000000000e+00
0.00000000000e+00
0.00000000000e+00
0.00000000000e+00
1.66831517373e-04
3.22881308600e-05
-2.12409092994e-04
0.00000000000e+00
0.00000000000e+00
0.00000000000e+00
0.00000000000e+00
0.00000000000e+00
0.00000000000e+00
1.90039933348e-04
1.43899258366e-04
-9.26001996492e-04

</DataArray>
<DataArray type="Int64" Name="grid_dim" format="ascii">
2
2
2
2
2
2
2
2
2
2
2
2
2
2
2
2
2
2
2
2
2
2
2
2
2
2
2
2
2
2
2
2
2
2
2
2
2
2
2
2
2
2
2
2
2
2
2
2
2
2
2
2
2
2
2
2
2
2
2
2
2
2
2
2
2
2
2
2
2
2
2
2
2
2
2
2
2
2
2
2
2
2
2
2
2
2
2
2
2
2
2
2
2
2
2
2
2
2
2
2
2
2
2
2
2
2
2
2
2
2
2
2
2
2
2
2
2
2
2
2
2
2
2
2
2
2
2
2

</DataArray>
<DataArray type="Int64" Name="is_mortar" format="ascii">
0
0
0
0
0
0
0
0
0
0
0
0
0
0
0
0
0
0
0
0
0
0
0
0
0
0
0
0
0
0
0
0
0
0
0
0
0
0
0
0
0
0
0
0
0
0
0
0
0
0
0
0
0
0
0
0
0
0
0
0
0
0
0
0
0
0
0
0
0
0
0
0
0
0
0
0
0
0
0
0
0
0
0
0
0
0
0
0
0
0
0
0
0
0
0
0
0
0
0
0
0
0
0
0
0
0
0
0
0
0
0
0
0
0
0
0
0
0
0
0
0
0
0
0
0
0
0
0

</DataArray>
<DataArray type="Int64" Name="mortar_side" format="ascii">
0
0
0
0
0
0
0
0
0
0
0
0
0
0
0
0
0
0
0
0
0
0
0
0
0
0
0
0
0
0
0
0
0
0
0
0
0
0
0
0
0
0
0
0
0
0
0
0
0
0
0
0
0
0
0
0
0
0
0
0
0
0
0
0
0
0
0
0
0
0
0
0
0
0
0
0
0
0
0
0
0
0
0
0
0
0
0
0
0
0
0
0
0
0
0
0
0
0
0
0
0
0
0
0
0
0
0
0
0
0
0
0
0
0
0
0
0
0
0
0
0
0
0
0
0
0
0
0

</DataArray>
<DataArray type="Float64" Name="pressure" format="ascii">
5.08151121427e+07
5.44511052456e+07
5.23442264553e+07
4.83075029427e+07
4.96748928647e+07
4.63976378342e+07
4.75759798866e+07
4.55562909396e+07
4.63377916276e+07
4.52559529974e+07
4.58303686349e+07
4.58239459574e+07
4.59411194871e+07
4.67411890794e+07
4.65553664929e+07
4.83280972851e+07
4.76390045490e+07
5.00812788121e+07
4.92364881505e+07
5.17399619725e+07
5.07868790426e+07
5.33690336315e+07
5.23554773943e+07
5.44248685460e+07
5.35455211448e+07
5.56211050954e+07
5.46216381921e+07
5.69361151403e+07
5.57199300604e+07
6.16247108662e+07
5.76219226461e+07
5.65194838451e+07
4.77965357326e+07
4.74887268100e+07
4.87683066268e+07
4.94895000401e+07
4.96057676101e+07
5.18459070835e+07
5.28106885576e+07
5.46714834697e+07
4.75287509316e+07
4.78667176675e+07
4.69582487934e+07
5.26538566857e+07
5.27456665318e+07
5.38583648054e+07
5.53586634893e+07
5.45014319466e+07
5.41086113419e+07
4.82995113117e+07
4.96651597609e+07
5.03381848709e+07
4.69875405793e+07
5.19387635394e+07
5.10481381086e+07
5.05187910490e+07
5.05243458862e+07
5.00281408607e+07
4.89136666444e+07
5.20679287962e+07
5.09113532065e+07
5.20853512149e+07
5.27113732497e+07
5.05268065279e+07
4.40386580084e+07
4.55786276669e+07
4.48485451678e+07
4.26129870968e+07
4.34691598121e+07
4.16717156322e+07
4.24071346356e+07
4.10689399903e+07
4.16973947290e+07
4.12065114581e+07
4.14719512946e+07
4.17729979000e+07
4.17908885511e+07
4.30201860077e+07
4.26428940338e+07
4.43929018568e+07
4.38656205091e+07
4.59284644102e+07
4.51532547150e+07
4.73442616240e+07
4.65182584850e+07
4.82579374503e+07
4.75454956636e+07
4.89481235378e+07
4.83182712403e+07
4.86727383021e+07
4.85073003334e+07
4.81462364907e+07
4.80966534041e+07
4.69896681004e+07
4.73648252307e+07
4.61825643815e+07
4.72924072670e+07
4.78979186043e+07
4.73396144305e+07
4.26362944221e+07
4.22811004177e+07
4.28604269486e+07
4.50513430608e+07
4.56090398976e+07
4.63048993211e+07
4.50760003039e+07
4.44957228929e+07
4.37141564129e+07
4.43332548420e+07
4.39948070474e+07
4.31520421282e+07
4.66659627274e+07
4.65384390900e+07
4.68762656261e+07
4.31016691692e+07
4.30912679060e+07
4.24254956205e+07
4.58494742668e+07
4.62066099682e+07
4.69472700077e+07
4.45121704613e+07
4.52370211452e+07
4.59724091604e+07
4.37195781305e+07
4.50595519012e+07
4.42497999783e+07
4.36296258755e+07
4.56722389332e+07

</DataArray>
<DataArray type="Float64" Name="specific_volume" format="ascii">
1.01855851610e-03
1.01943591719e-03
1.02951566927e-03
1.02137750745e-03
1.02625204869e-03
1.03582322998e-03
1.02926770375e-03
1.09242983191e-03
1.07182388057e-03
1.10573744239e-03
1.10814429627e-03
1.10964466620e-03
1.11017007079e-03
1.09401294977e-03
1.13040224134e-03
1.12695951472e-03
1.12367963671e-03
1.12888479275e-03
1.14315849226e-03
1.12994906178e-03
1.15243428462e-03
1.14462448753e-03
1.15895352566e-03
1.13008809769e-03
1.15458800540e-03
1.07982343404e-03
1.12195609935e-03
1.06791224552e-03
1.09813064536e-03
1.04236422326e-03
1.06444406461e-03
1.03426629708e-03
1.18007887467e-03
1.17013612149e-03
1.19367643065e-03
1.20432547059e-03
1.17855422588e-03
1.05309970211e-03
1.09505617681e-03
1.07918051463e-03
1.09831550941e-03
1.12914323267e-03
1.12349544355e-03
1.18260514625e-03
1.16736060733e-03
1.13811466013e-03
1.09365281421e-03
1.12874495592e-03
1.12874207846e-03
1.07467115267e-03
1.09136133647e-03
1.05016909605e-03
1.13206602427e-03
1.19905781759e-03
1.20307110569e-03
1.18030897119e-03
1.14157971431e-03
1.16214418860e-03
1.16559362890e-03
1.13502527281e-03
1.18074007456e-03
1.16651420440e-03
1.15045759260e-03
1.20460570574e-03
1.06245945225e-03
1.04322982625e-03
1.06013939221e-03
1.07030519214e-03
1.08132838409e-03
1.08894392598e-03
1.10179926304e-03
1.07836090297e-03
1.09491740022e-03
1.04863873826e-03
1.08049692645e-03
1.01557298776e-03
1.03005806601e-03
1.01518774449e-03
1.01916554356e-03
1.01415729635e-03
1.01909874708e-03
1.01511639047e-03
1.01952726746e-03
1.01725825935e-03
1.02031005994e-03
1.02455883381e-03
1.02486195911e-03
1.06086460152e-03
1.03244109939e-03
1.07073761957e-03
1.06557774974e-03
1.04162324644e-03
1.05992599504e-03
1.04168618501e-03
1.04796203760e-03
1.04885626954e-03
1.04025004394e-03
1.04359114334e-03
1.05341645820e-03
1.03401123290e-03
1.08240569420e-03
1.05917835671e-03
1.02711366450e-03
1.03048694942e-03
1.02782752527e-03
1.08359525110e-03
1.09583354415e-03
1.09967103910e-03
1.02740715294e-03
1.03225723839e-03
1.02787595463e-03
1.03926184361e-03
1.03509144910e-03
1.03071930184e-03
1.10612492012e-03
1.10100265988e-03
1.10552509175e-03
1.07467168248e-03
1.07825804402e-03
1.06206149444e-03
1.08727983424e-03
1.06268690141e-03
1.06544208715e-03
1.08880706271e-03
1.03672091891e-03
1.04322790400e-03
1.06313785073e-03
1.03449176569e-03

</DataArray>
<DataArray type="Int64" Name="states" format="ascii">
1
1
2
1
1
2
1
2
2
2
2
2
2
2
2
2
2
2
2
2
2
2
2
2
2
2
2
2
2
2
2
2
2
2
2
2
2
2
2
2
2
2
2
2
2
2
2
2
2
2
2
2
2
2
2
2
2
2
2
2
2
2
2
2
2
2
2
2
2
2
2
2
2
2
2
1
2
0
0
0
0
0
0
0
0
1
0
2
1
2
2
2
2
2
2
2
2
2
2
2
2
2
0
0
0
2
2
2
0
2
2
1
0
0
2
2
2
2
2
2
2
2
2
2
1
2
2
0

</DataArray>
<DataArray type="Int64" Name="subdomain_id" format="ascii">
5
5
5
5
5
5
5
5
5
5
5
5
5
5
5
5
5
5
5
5
5
5
5
5
5
5
5
5
5
5
5
5
5
5
5
5
5
5
5
5
5
5
5
5
5
5
5
5
5
5
5
5
5
5
5
5
5
5
5
5
5
5
5
5
6
6
6
6
6
6
6
6
6
6
6
6
6
6
6
6
6
6
6
6
6
6
6
6
6
6
6
6
6
6
6
6
6
6
6
6
6
6
6
6
6
6
6
6
6
6
6
6
6
6
6
6
6
6
6
6
6
6
6
6
6
6
6
6

</DataArray>
</CellData>
</Piece>
</UnstructuredGrid>
</VTKFile>
