<?xml version="1.0"?>
<VTKFile type="UnstructuredGrid" version="0.1" byte_order="LittleEndian">
<!--This file was created by meshio v5.3.5-->
<UnstructuredGrid>
<Piece NumberOfPoints="82" NumberOfCells="128">
<Points>
<DataArray type="Float64" Name="Points" NumberOfComponents="3" format="ascii">
-3.62777204087e+01
5.93338573254e+02
-3.00000000000e+03
-8.19500009019e+01
7.40929074508e+02
-2.82410848990e+03
-2.12013651697e+02
8.66050259858e+02
-2.67499486775e+03
-4.06667660990e+02
9.49653563059e+02
-2.57536033081e+03
-6.36277720409e+02
9.79011139066e+02
-2.54037333413e+03
-8.65887779828e+02
9.49653563059e+02
-2.57536033081e+03
-1.06054178912e+03
8.66050259858e+02
-2.67499486775e+03
-1.19060543992e+03
7.40929074508e+02
-2.82410848990e+03
-1.23627772041e+03
5.93338573254e+02
-3.00000000000e+03
-1.19060543992e+03
4.45748072000e+02
-3.17589151010e+03
-1.06054178912e+03
3.20626886651e+02
-3.32500513225e+03
-8.65887779828e+02
2.37023583450e+02
-3.42463966919e+03
-6.36277720409e+02
2.07666007442e+02
-3.45962666587e+03
-4.06667660990e+02
2.37023583450e+02
-3.42463966919e+03
-2.12013651697e+02
3.20626886651e+02
-3.32500513225e+03
-8.19500009019e+01
4.45748072000e+02
-3.17589151010e+03
-9.82301878795e+02
6.57836979237e+02
-2.92313379295e+03
-2.35388105079e+02
5.41264947208e+02
-3.06205893092e+03
-5.69871316028e+02
8.40374504474e+02
-2.70559404147e+03
-7.11529394962e+02
3.50161918889e+02
-3.28980665147e+03
-4.01907468113e+02
3.68697219987e+02
-3.26771713980e+03
-3.01147993968e+02
7.32392613644e+02
-2.83428184780e+03
-8.72831799617e+02
8.02387168171e+02
-2.75086558598e+03
-9.56998297522e+02
4.55590063739e+02
-3.16416228109e+03
-3.83495241035e+02
8.36515227620e+02
-2.71019334853e+03
-5.24957334276e+02
6.99549662937e+02
-2.87342255230e+03
-3.68806365849e+02
6.08303991849e+02
-2.98216490863e+03
-5.60624169490e+02
5.42627281744e+02
-3.06043536384e+03
-7.57039155452e+02
6.08228297855e+02
-2.98225511721e+03
-7.59403827432e+02
4.72412129709e+02
-3.14411452353e+03
-7.22504460330e+02
7.28377464595e+02
-2.83906691610e+03
-2.64377961448e+02
4.33055503539e+02
-3.19101792417e+03
-8.89060199783e+02
3.50161918889e+02
-3.28980665147e+03
-7.33474615242e+02
8.59960767873e+02
-2.68225204170e+03
-1.02657022686e+03
7.66800870444e+02
-2.79327568415e+03
-1.06255581105e+03
5.40549452857e+02
-3.06291162388e+03
-1.90023907337e+02
6.50395874092e+02
-2.93200175674e+03
-5.47512317998e+02
3.06492151437e+02
-3.34185025372e+03
-5.83826678727e+02
4.23842427026e+02
-3.20199764120e+03
-9.03659794049e+02
5.46923384679e+02
-3.05531546774e+03
-4.02488458118e+02
4.86298561892e+02
-3.12756531809e+03
1.39247167980e+02
4.29658966839e+02
-3.00000000000e+03
9.35748874867e+01
5.77249468093e+02
-2.82410848990e+03
-3.64887633081e+01
7.02370653443e+02
-2.67499486775e+03
-2.31142772601e+02
7.85973956644e+02
-2.57536033081e+03
-4.60752832020e+02
8.15331532651e+02
-2.54037333413e+03
-6.90362891439e+02
7.85973956644e+02
-2.57536033081e+03
-8.85016900732e+02
7.02370653443e+02
-2.67499486775e+03
-1.01508055153e+03
5.77249468093e+02
-2.82410848990e+03
-1.06075283202e+03
4.29658966839e+02
-3.00000000000e+03
-1.01508055153e+03
2.82068465585e+02
-3.17589151010e+03
-8.85016900732e+02
1.56947280236e+02
-3.32500513225e+03
-6.90362891439e+02
7.33439770346e+01
-3.42463966919e+03
-4.60752832020e+02
4.39864010275e+01
-3.45962666587e+03
-2.31142772601e+02
7.33439770346e+01
-3.42463966919e+03
-3.64887633081e+01
1.56947280236e+02
-3.32500513225e+03
9.35748874867e+01
2.82068465585e+02
-3.17589151010e+03
-3.85501157466e+02
1.86482312474e+02
-3.28980665147e+03
-5.42147648576e+02
6.95030235725e+02
-2.68374283693e+03
-8.39068547352e+02
3.81288122828e+02
-3.05764612713e+03
-7.08121434506e+01
4.83655900143e+02
-2.93564896075e+03
-7.81473409133e+02
5.67407476355e+02
-2.83583771891e+03
-6.34476559427e+02
2.26776986862e+02
-3.24178532851e+03
-2.34565328910e+02
6.48692719502e+02
-2.73896573837e+03
-1.42041358264e+02
2.85161188911e+02
-3.17220574597e+03
-1.44990189488e+01
3.72601666001e+02
-3.06799824326e+03
-2.65198556211e+02
4.05153668847e+02
-3.02920427692e+03
-2.55159122143e+02
5.40647758235e+02
-2.86772870912e+03
-4.63043301905e+02
4.99903277397e+02
-2.91628609053e+03
-5.29764428503e+02
3.64241917225e+02
-3.07796100389e+03
-6.80842827495e+02
4.59203661243e+02
-2.96479000430e+03
-3.76782071951e+02
3.02472868463e+02
-3.15157448967e+03
-8.24371166880e+01
5.92144412527e+02
-2.80635738636e+03
-7.13535311394e+02
6.72835621205e+02
-2.71019334853e+03
-3.74101443840e+02
7.12031896534e+02
-2.66348104659e+03
-9.07006645091e+02
4.86716267677e+02
-2.93200175674e+03
-8.20248311744e+02
2.73234816746e+02
-3.18641904284e+03
-2.26842404126e+02
1.96767464581e+02
-3.27754928450e+03
-5.42773360088e+02
1.32647419350e+02
-3.35396457876e+03
-6.10120761438e+02
5.73350861291e+02
-2.82875466856e+03
-7.00880134904e+02
3.40949100981e+02
-3.10572030134e+03
-4.13189601135e+02
6.11609458114e+02
-2.78315984835e+03

</DataArray>
</Points>
<Cells>
<DataArray type="Int64" Name="connectivity" format="ascii">
0
1
36
0
15
17
0
17
36
1
2
21
1
21
36
2
3
24
2
21
24
3
4
18
3
18
24
4
5
33
4
18
33
5
6
22
5
22
33
6
7
34
6
22
34
7
8
16
7
16
34
8
9
35
8
16
35
9
10
23
9
23
35
10
11
32
10
23
32
11
12
19
11
19
32
12
13
37
12
19
37
13
14
20
13
20
37
14
15
31
14
20
31
15
17
31
16
22
30
16
22
34
16
28
30
16
28
39
16
35
39
17
26
36
17
26
40
17
31
40
18
24
25
18
25
30
18
30
33
19
29
32
19
29
38
19
37
38
20
31
40
20
37
38
20
38
40
21
24
25
21
25
26
21
26
36
22
30
33
23
29
32
23
29
39
23
35
39
25
26
27
25
27
28
25
28
30
26
27
40
27
28
29
27
29
38
27
38
40
28
29
39
41
42
60
41
56
65
41
60
65
42
43
72
42
60
72
43
44
63
43
63
72
44
45
74
44
63
74
45
46
58
45
58
74
46
47
73
46
58
73
47
48
61
47
61
73
48
49
75
48
61
75
49
50
59
49
59
75
50
51
76
50
59
76
51
52
62
51
62
76
52
53
78
52
62
78
53
54
57
53
57
78
54
55
77
54
57
77
55
56
64
55
64
77
56
64
65
57
62
71
57
62
78
57
71
77
58
73
79
58
74
81
58
79
81
59
70
75
59
70
80
59
76
80
60
65
66
60
66
67
60
67
72
61
70
75
61
70
79
61
73
79
62
69
71
62
69
80
62
76
80
63
67
72
63
67
81
63
74
81
64
65
66
64
66
71
64
71
77
66
67
68
66
68
69
66
69
71
67
68
81
68
69
70
68
70
79
68
79
81
69
70
80

</DataArray>
<DataArray type="Int64" Name="offsets" format="ascii">
3
6
9
12
15
18
21
24
27
30
33
36
39
42
45
48
51
54
57
60
63
66
69
72
75
78
81
84
87
90
93
96
99
102
105
108
111
114
117
120
123
126
129
132
135
138
141
144
147
150
153
156
159
162
165
168
171
174
177
180
183
186
189
192
195
198
201
204
207
210
213
216
219
222
225
228
231
234
237
240
243
246
249
252
255
258
261
264
267
270
273
276
279
282
285
288
291
294
297
300
303
306
309
312
315
318
321
324
327
330
333
336
339
342
345
348
351
354
357
360
363
366
369
372
375
378
381
384

</DataArray>
<DataArray type="Int64" Name="types" format="ascii">
5
5
5
5
5
5
5
5
5
5
5
5
5
5
5
5
5
5
5
5
5
5
5
5
5
5
5
5
5
5
5
5
5
5
5
5
5
5
5
5
5
5
5
5
5
5
5
5
5
5
5
5
5
5
5
5
5
5
5
5
5
5
5
5
5
5
5
5
5
5
5
5
5
5
5
5
5
5
5
5
5
5
5
5
5
5
5
5
5
5
5
5
5
5
5
5
5
5
5
5
5
5
5
5
5
5
5
5
5
5
5
5
5
5
5
5
5
5
5
5
5
5
5
5
5
5
5
5

</DataArray>
</Cells>
<PointData>
<DataArray type="Int64" Name="node_id" format="ascii">
0
1
2
3
4
5
6
7
8
9
10
11
12
13
14
15
16
17
18
19
20
21
22
23
24
25
26
27
28
29
30
31
32
33
34
35
36
37
38
39
40
0
1
2
3
4
5
6
7
8
9
10
11
12
13
14
15
16
17
18
19
20
21
22
23
24
25
26
27
28
29
30
31
32
33
34
35
36
37
38
39
40

</DataArray>
</PointData>
<CellData>
<DataArray type="Float64" Name="aperture" format="ascii">
1.01579606354e-03
1.01567877063e-03
1.01987901547e-03
1.01829339119e-03
1.02217128329e-03
1.02404385884e-03
1.02470777113e-03
1.04206103748e-03
1.03285065241e-03
1.04866248751e-03
1.04683576485e-03
1.04979640630e-03
1.04260484231e-03
1.04261271549e-03
1.06888125075e-03
1.06484276448e-03
1.05731835732e-03
1.07238702508e-03
1.07460017969e-03
1.07612642571e-03
1.08799800115e-03
1.09052880254e-03
1.09631810090e-03
1.07036830702e-03
1.08743227833e-03
1.03753329053e-03
1.05882877497e-03
1.02128523321e-03
1.04121461143e-03
1.01600151224e-03
1.02008642993e-03
1.01877162524e-03
1.09360696193e-03
1.09334534923e-03
1.09845923667e-03
1.11175734376e-03
1.09739034948e-03
1.02642511350e-03
1.03021244234e-03
1.02643495231e-03
1.03861479737e-03
1.04291751709e-03
1.04299042173e-03
1.09826118450e-03
1.07520069694e-03
1.05497062324e-03
1.02694863655e-03
1.04857604811e-03
1.04223937758e-03
1.03419536729e-03
1.03473381586e-03
1.02816604692e-03
1.04941303443e-03
1.11591191342e-03
1.11381457820e-03
1.10063653675e-03
1.05182550509e-03
1.05823464348e-03
1.06505502065e-03
1.04649726448e-03
1.07778351435e-03
1.06617803479e-03
1.05353034123e-03
1.10724911911e-03
1.02996321434e-03
1.03087875616e-03
1.03496900578e-03
1.02862713068e-03
1.03479123046e-03
1.04553542157e-03
1.05260506202e-03
1.05001499224e-03
1.05348719572e-03
1.04100908922e-03
1.06160402209e-03
1.01548115859e-03
1.03102778938e-03
1.01518774449e-03
1.02039578201e-03
1.01415729635e-03
1.01909874708e-03
1.01511639047e-03
1.01952726746e-03
1.01725825935e-03
1.02031005994e-03
1.02360306801e-03
1.02486195911e-03
1.03437314056e-03
1.03092787329e-03
1.04070125271e-03
1.03924698729e-03
1.03032397478e-03
1.03568116443e-03
1.03240898740e-03
1.03553293904e-03
1.03448470916e-03
1.03905614630e-03
1.03643557508e-03
1.04013077415e-03
1.03850337581e-03
1.06311267462e-03
1.05562969979e-03
1.02711366450e-03
1.03048694942e-03
1.02782752527e-03
1.04154144164e-03
1.05327188855e-03
1.04807818635e-03
1.02817662946e-03
1.04302470941e-03
1.03605791332e-03
1.04365514358e-03
1.03509144910e-03
1.03071930184e-03
1.05483857497e-03
1.06106611449e-03
1.06832867790e-03
1.04163340291e-03
1.05701006805e-03
1.04123905810e-03
1.06573964134e-03
1.06144401884e-03
1.06283051389e-03
1.06854987176e-03
1.04456099027e-03
1.05292435495e-03
1.06169350797e-03
1.03449176569e-03

</DataArray>
<DataArray type="Int64" Name="cell_id" format="ascii">
0
1
2
3
4
5
6
7
8
9
10
11
12
13
14
15
16
17
18
19
20
21
22
23
24
25
26
27
28
29
30
31
32
33
34
35
36
37
38
39
40
41
42
43
44
45
46
47
48
49
50
51
52
53
54
55
56
57
58
59
60
61
62
63
0
1
2
3
4
5
6
7
8
9
10
11
12
13
14
15
16
17
18
19
20
21
22
23
24
25
26
27
28
29
30
31
32
33
34
35
36
37
38
39
40
41
42
43
44
45
46
47
48
49
50
51
52
53
54
55
56
57
58
59
60
61
62
63

</DataArray>
<DataArray type="Float64" Name="contact_traction" NumberOfComponents="3" format="ascii">
1.16716018561e-03
-7.02101201987e-04
-1.70257571267e-03
1.10450957045e-03
-7.46627132355e-04
-1.66648651078e-03
7.68296349708e-04
-4.96030614425e-04
-1.14313552580e-03
1.65235071262e-03
-9.31471058284e-04
-2.37101679465e-03
1.14483148337e-03
-6.96483186733e-04
-1.67505967930e-03
1.15385374397e-03
-6.05238569810e-04
-1.62869396913e-03
1.42686439652e-03
-8.54921203911e-04
-2.07922471689e-03
0.00000000000e+00
0.00000000000e+00
0.00000000000e+00
4.98858876168e-04
-3.02101857113e-04
-7.29003719129e-04
0.00000000000e+00
0.00000000000e+00
0.00000000000e+00
0.00000000000e+00
0.00000000000e+00
0.00000000000e+00
0.00000000000e+00
0.00000000000e+00
0.00000000000e+00
0.00000000000e+00
0.00000000000e+00
0.00000000000e+00
0.00000000000e+00
0.00000000000e+00
0.00000000000e+00
0.00000000000e+00
0.00000000000e+00
0.00000000000e+00
0.00000000000e+00
0.00000000000e+00
0.00000000000e+00
0.00000000000e+00
0.00000000000e+00
0.00000000000e+00
0.00000000000e+00
0.00000000000e+00
0.00000000000e+00
0.00000000000e+00
0.00000000000e+00
0.00000000000e+00
0.00000000000e+00
0.00000000000e+00
0.00000000000e+00
0.00000000000e+00
0.00000000000e+00
0.00000000000e+00
0.00000000000e+00
0.00000000000e+00
0.00000000000e+00
0.00000000000e+00
0.00000000000e+00
0.00000000000e+00
0.00000000000e+00
0.00000000000e+00
0.00000000000e+00
0.00000000000e+00
0.00000000000e+00
0.00000000000e+00
0.00000000000e+00
0.00000000000e+00
0.00000000000e+00
0.00000000000e+00
0.00000000000e+00
0.00000000000e+00
0.00000000000e+00
0.00000000000e+00
0.00000000000e+00
0.00000000000e+00
0.00000000000e+00
0.00000000000e+00
8.63621721920e-04
-6.20912073043e-04
-1.32957599034e-03
5.60774590755e-04
-4.12672179894e-04
-8.70314660854e-04
1.19385206083e-03
-8.00307002900e-04
-1.79660010595e-03
0.00000000000e+00
0.00000000000e+00
0.00000000000e+00
0.00000000000e+00
0.00000000000e+00
0.00000000000e+00
0.00000000000e+00
0.00000000000e+00
0.00000000000e+00
0.00000000000e+00
0.00000000000e+00
0.00000000000e+00
0.00000000000e+00
0.00000000000e+00
0.00000000000e+00
9.05287019718e-04
-6.22823209432e-04
-1.37355227096e-03
2.61521117996e-05
-1.85578148637e-05
-4.00843923042e-05
3.97244992903e-04
-2.88985732106e-04
-6.14049491271e-04
2.77776781859e-04
-1.74141467280e-04
-4.09811677722e-04
9.55884011062e-06
-5.99182918973e-06
-1.41019414277e-05
3.67700225399e-07
-2.25798353374e-07
-5.39369354178e-07
0.00000000000e+00
0.00000000000e+00
0.00000000000e+00
0.00000000000e+00
0.00000000000e+00
0.00000000000e+00
0.00000000000e+00
0.00000000000e+00
0.00000000000e+00
1.83931080261e-04
-1.34462050096e-04
-2.84798956508e-04
0.00000000000e+00
0.00000000000e+00
0.00000000000e+00
0.00000000000e+00
0.00000000000e+00
0.00000000000e+00
6.19472013173e-04
-3.90966306051e-04
-9.15662522757e-04
3.23230914390e-04
-2.14575019523e-04
-4.84962406759e-04
9.48233847069e-04
-6.33898656640e-04
-1.42575360315e-03
0.00000000000e+00
0.00000000000e+00
0.00000000000e+00
0.00000000000e+00
0.00000000000e+00
0.00000000000e+00
0.00000000000e+00
0.00000000000e+00
0.00000000000e+00
0.00000000000e+00
0.00000000000e+00
0.00000000000e+00
0.00000000000e+00
0.00000000000e+00
0.00000000000e+00
0.00000000000e+00
0.00000000000e+00
0.00000000000e+00
0.00000000000e+00
0.00000000000e+00
0.00000000000e+00
0.00000000000e+00
0.00000000000e+00
0.00000000000e+00
0.00000000000e+00
0.00000000000e+00
0.00000000000e+00
0.00000000000e+00
0.00000000000e+00
0.00000000000e+00
0.00000000000e+00
0.00000000000e+00
0.00000000000e+00
0.00000000000e+00
0.00000000000e+00
0.00000000000e+00
3.13493790318e-04
-2.79020541367e-04
-5.24599280215e-04
8.77556409199e-04
-7.04184830562e-04
-1.40644805656e-03
6.24389260542e-04
-5.26591219268e-04
-1.02099848562e-03
1.56448717432e-05
-1.26718473457e-05
-2.51662511800e-05
0.00000000000e+00
0.00000000000e+00
0.00000000000e+00
0.00000000000e+00
0.00000000000e+00
0.00000000000e+00
0.00000000000e+00
0.00000000000e+00
0.00000000000e+00
0.00000000000e+00
0.00000000000e+00
0.00000000000e+00
0.00000000000e+00
0.00000000000e+00
0.00000000000e+00
0.00000000000e+00
0.00000000000e+00
0.00000000000e+00
0.00000000000e+00
0.00000000000e+00
0.00000000000e+00
1.22713335271e-04
-7.67346956867e-05
-1.80912514144e-04
0.00000000000e+00
0.00000000000e+00
0.00000000000e+00
4.88640798229e-04
-2.86336446639e-04
-7.07944196211e-04
0.00000000000e+00
0.00000000000e+00
0.00000000000e+00
1.17689756506e-03
-6.63218886819e-04
-1.68863256923e-03
4.00526770464e-04
-2.32921673360e-04
-5.79161840210e-04
1.45802203316e-03
-8.20497142782e-04
-2.09129289050e-03
9.64161498949e-04
-5.40705490870e-04
-1.38178429933e-03
1.17229412895e-03
-6.28458720510e-04
-1.66265689492e-03
1.27274937978e-03
-7.59198297067e-04
-1.85247850781e-03
1.03585190099e-03
-6.20583250080e-04
-1.50940423422e-03
9.91545599275e-04
-6.07268214409e-04
-1.45341051479e-03
0.00000000000e+00
0.00000000000e+00
0.00000000000e+00
7.41687061690e-04
-5.14826695295e-04
-1.12856810804e-03
0.00000000000e+00
0.00000000000e+00
0.00000000000e+00
0.00000000000e+00
0.00000000000e+00
0.00000000000e+00
7.81839751915e-04
-6.51768035551e-04
-1.27234709902e-03
2.59234550262e-04
-2.15844516668e-04
-4.21662274933e-04
8.50226646296e-04
-7.36473575606e-04
-1.40605758552e-03
7.34167101615e-04
-6.18003799394e-04
-1.19956374177e-03
7.68591513191e-04
-6.80933054419e-04
-1.28355143228e-03
1.80327470015e-04
-1.37783619581e-04
-2.83676538582e-04
2.11297046664e-04
-1.58427420700e-04
-3.30117615306e-04
1.65344266143e-04
-1.32611567709e-04
-2.64942665486e-04
0.00000000000e+00
0.00000000000e+00
0.00000000000e+00
0.00000000000e+00
0.00000000000e+00
0.00000000000e+00
0.00000000000e+00
0.00000000000e+00
0.00000000000e+00
3.82716587685e-04
-2.46874211248e-04
-5.69290763072e-04
1.33364113093e-04
-8.82407061570e-05
-1.99892193148e-04
5.09473752538e-04
-3.32359729841e-04
-7.60372538777e-04
0.00000000000e+00
0.00000000000e+00
0.00000000000e+00
0.00000000000e+00
0.00000000000e+00
0.00000000000e+00
0.00000000000e+00
0.00000000000e+00
0.00000000000e+00
0.00000000000e+00
0.00000000000e+00
0.00000000000e+00
0.00000000000e+00
0.00000000000e+00
0.00000000000e+00
0.00000000000e+00
0.00000000000e+00
0.00000000000e+00
0.00000000000e+00
0.00000000000e+00
0.00000000000e+00
1.39949369839e-04
-1.01202407154e-04
-2.15883914597e-04
5.57354575497e-04
-3.74538435624e-04
-8.39385156851e-04
0.00000000000e+00
0.00000000000e+00
0.00000000000e+00
0.00000000000e+00
0.00000000000e+00
0.00000000000e+00
0.00000000000e+00
0.00000000000e+00
0.00000000000e+00
8.57864139821e-05
-7.40299698933e-05
-1.41640749711e-04
0.00000000000e+00
0.00000000000e+00
0.00000000000e+00
5.01816299031e-06
-4.11620701765e-06
-8.11298342257e-06
0.00000000000e+00
0.00000000000e+00
0.00000000000e+00
0.00000000000e+00
0.00000000000e+00
0.00000000000e+00
0.00000000000e+00
0.00000000000e+00
0.00000000000e+00
0.00000000000e+00
0.00000000000e+00
0.00000000000e+00
0.00000000000e+00
0.00000000000e+00
0.00000000000e+00
0.00000000000e+00
0.00000000000e+00
0.00000000000e+00
0.00000000000e+00
0.00000000000e+00
0.00000000000e+00
2.54394838783e-05
-1.81415134249e-05
-3.90568865835e-05

</DataArray>
<DataArray type="Int64" Name="grid_dim" format="ascii">
2
2
2
2
2
2
2
2
2
2
2
2
2
2
2
2
2
2
2
2
2
2
2
2
2
2
2
2
2
2
2
2
2
2
2
2
2
2
2
2
2
2
2
2
2
2
2
2
2
2
2
2
2
2
2
2
2
2
2
2
2
2
2
2
2
2
2
2
2
2
2
2
2
2
2
2
2
2
2
2
2
2
2
2
2
2
2
2
2
2
2
2
2
2
2
2
2
2
2
2
2
2
2
2
2
2
2
2
2
2
2
2
2
2
2
2
2
2
2
2
2
2
2
2
2
2
2
2

</DataArray>
<DataArray type="Int64" Name="is_mortar" format="ascii">
0
0
0
0
0
0
0
0
0
0
0
0
0
0
0
0
0
0
0
0
0
0
0
0
0
0
0
0
0
0
0
0
0
0
0
0
0
0
0
0
0
0
0
0
0
0
0
0
0
0
0
0
0
0
0
0
0
0
0
0
0
0
0
0
0
0
0
0
0
0
0
0
0
0
0
0
0
0
0
0
0
0
0
0
0
0
0
0
0
0
0
0
0
0
0
0
0
0
0
0
0
0
0
0
0
0
0
0
0
0
0
0
0
0
0
0
0
0
0
0
0
0
0
0
0
0
0
0

</DataArray>
<DataArray type="Int64" Name="mortar_side" format="ascii">
0
0
0
0
0
0
0
0
0
0
0
0
0
0
0
0
0
0
0
0
0
0
0
0
0
0
0
0
0
0
0
0
0
0
0
0
0
0
0
0
0
0
0
0
0
0
0
0
0
0
0
0
0
0
0
0
0
0
0
0
0
0
0
0
0
0
0
0
0
0
0
0
0
0
0
0
0
0
0
0
0
0
0
0
0
0
0
0
0
0
0
0
0
0
0
0
0
0
0
0
0
0
0
0
0
0
0
0
0
0
0
0
0
0
0
0
0
0
0
0
0
0
0
0
0
0
0
0

</DataArray>
<DataArray type="Float64" Name="pressure" format="ascii">
2.85711819849e+07
3.01434262228e+07
2.93476141177e+07
2.71918304531e+07
2.80304437631e+07
2.59752646817e+07
2.68201254216e+07
2.55209871700e+07
2.60751097654e+07
2.54448222401e+07
2.58697747524e+07
2.61079781658e+07
2.61316583196e+07
2.70580273680e+07
2.68190358207e+07
2.85422458249e+07
2.78677045180e+07
3.01462085594e+07
2.93214602943e+07
3.15370809205e+07
3.06818699748e+07
3.27587234983e+07
3.19087859520e+07
3.31979934741e+07
3.26438708786e+07
3.33678117141e+07
3.29278516658e+07
3.26866454362e+07
3.27416110565e+07
3.16247108662e+07
3.19243378356e+07
3.07667175839e+07
2.77781297305e+07
2.76287129707e+07
2.85331536189e+07
2.92387725009e+07
2.95019546292e+07
2.92894182263e+07
2.99275419986e+07
3.06090292511e+07
2.70476865985e+07
2.74682009648e+07
2.68444117143e+07
3.17285175126e+07
3.14419967697e+07
3.20872083275e+07
3.12800918517e+07
3.20151302654e+07
3.13159186611e+07
2.74675948260e+07
2.83550378480e+07
2.85461817537e+07
2.69921327343e+07
3.13185400145e+07
3.05533954360e+07
3.02884304277e+07
2.90929766224e+07
2.90932709729e+07
2.83709458733e+07
2.99222443003e+07
2.99765386973e+07
3.06935584088e+07
3.06395583623e+07
2.99598324797e+07
2.85830828092e+07
3.01628061951e+07
2.93788949143e+07
2.71007129538e+07
2.79512270881e+07
2.60691489708e+07
2.68228922114e+07
2.53835724953e+07
2.60315793800e+07
2.54496867039e+07
2.57372245417e+07
2.59752646817e+07
2.60038092994e+07
2.71969072595e+07
2.68252022280e+07
2.85711819849e+07
2.80355205695e+07
3.01290272469e+07
2.93332151419e+07
3.16097047195e+07
3.07373124613e+07
3.26020299530e+07
3.18247162057e+07
3.34073407487e+07
3.26965246080e+07
3.31979934741e+07
3.29673807004e+07
3.27187277179e+07
3.26038750983e+07
3.15633267411e+07
3.18950359922e+07
3.07247134311e+07
3.15961658319e+07
3.22565645597e+07
3.17128635968e+07
2.68306348571e+07
2.65294367781e+07
2.70687244981e+07
2.92183249490e+07
2.97851684460e+07
3.05083438532e+07
2.94741884507e+07
2.88207090923e+07
2.80935598347e+07
2.84945642587e+07
2.81576690777e+07
2.73269203571e+07
3.09049136229e+07
3.07552914365e+07
3.11091899464e+07
2.74517826092e+07
2.73760890580e+07
2.67096290692e+07
3.02460730855e+07
3.05187823227e+07
3.13291319193e+07
2.87575280595e+07
2.94435158993e+07
3.02112617912e+07
2.79546852506e+07
2.92333321701e+07
2.84201720615e+07
2.78275129819e+07
2.98514558755e+07

</DataArray>
<DataArray type="Float64" Name="specific_volume" format="ascii">
1.01579606354e-03
1.01567877063e-03
1.01987901547e-03
1.01829339119e-03
1.02217128329e-03
1.02404385884e-03
1.02470777113e-03
1.04206103748e-03
1.03285065241e-03
1.04866248751e-03
1.04683576485e-03
1.04979640630e-03
1.04260484231e-03
1.04261271549e-03
1.06888125075e-03
1.06484276448e-03
1.05731835732e-03
1.07238702508e-03
1.07460017969e-03
1.07612642571e-03
1.08799800115e-03
1.09052880254e-03
1.09631810090e-03
1.07036830702e-03
1.08743227833e-03
1.03753329053e-03
1.05882877497e-03
1.02128523321e-03
1.04121461143e-03
1.01600151224e-03
1.02008642993e-03
1.01877162524e-03
1.09360696193e-03
1.09334534923e-03
1.09845923667e-03
1.11175734376e-03
1.09739034948e-03
1.02642511350e-03
1.03021244234e-03
1.02643495231e-03
1.03861479737e-03
1.04291751709e-03
1.04299042173e-03
1.09826118450e-03
1.07520069694e-03
1.05497062324e-03
1.02694863655e-03
1.04857604811e-03
1.04223937758e-03
1.03419536729e-03
1.03473381586e-03
1.02816604692e-03
1.04941303443e-03
1.11591191342e-03
1.11381457820e-03
1.10063653675e-03
1.05182550509e-03
1.05823464348e-03
1.06505502065e-03
1.04649726448e-03
1.07778351435e-03
1.06617803479e-03
1.05353034123e-03
1.10724911911e-03
1.02996321434e-03
1.03087875616e-03
1.03496900578e-03
1.02862713068e-03
1.03479123046e-03
1.04553542157e-03
1.05260506202e-03
1.05001499224e-03
1.05348719572e-03
1.04100908922e-03
1.06160402209e-03
1.01548115859e-03
1.03102778938e-03
1.01518774449e-03
1.02039578201e-03
1.01415729635e-03
1.01909874708e-03
1.01511639047e-03
1.01952726746e-03
1.01725825935e-03
1.02031005994e-03
1.02360306801e-03
1.02486195911e-03
1.03437314056e-03
1.03092787329e-03
1.04070125271e-03
1.03924698729e-03
1.03032397478e-03
1.03568116443e-03
1.03240898740e-03
1.03553293904e-03
1.03448470916e-03
1.03905614630e-03
1.03643557508e-03
1.04013077415e-03
1.03850337581e-03
1.06311267462e-03
1.05562969979e-03
1.02711366450e-03
1.03048694942e-03
1.02782752527e-03
1.04154144164e-03
1.05327188855e-03
1.04807818635e-03
1.02817662946e-03
1.04302470941e-03
1.03605791332e-03
1.04365514358e-03
1.03509144910e-03
1.03071930184e-03
1.05483857497e-03
1.06106611449e-03
1.06832867790e-03
1.04163340291e-03
1.05701006805e-03
1.04123905810e-03
1.06573964134e-03
1.06144401884e-03
1.06283051389e-03
1.06854987176e-03
1.04456099027e-03
1.05292435495e-03
1.06169350797e-03
1.03449176569e-03

</DataArray>
<DataArray type="Int64" Name="states" format="ascii">
1
1
1
1
1
1
1
2
1
2
2
2
2
2
2
2
2
2
2
2
2
2
2
2
2
2
2
2
2
1
1
1
2
2
2
2
2
1
1
1
1
1
1
2
2
2
1
2
2
1
1
1
2
2
2
2
2
2
2
2
2
2
2
2
1
1
1
1
2
2
2
2
2
2
2
1
2
1
2
1
1
1
1
1
1
1
1
2
1
2
2
1
1
1
1
1
1
1
1
2
2
2
1
1
1
2
2
2
2
2
2
2
1
1
2
2
2
1
2
1
2
2
2
2
2
2
2
1

</DataArray>
<DataArray type="Int64" Name="subdomain_id" format="ascii">
5
5
5
5
5
5
5
5
5
5
5
5
5
5
5
5
5
5
5
5
5
5
5
5
5
5
5
5
5
5
5
5
5
5
5
5
5
5
5
5
5
5
5
5
5
5
5
5
5
5
5
5
5
5
5
5
5
5
5
5
5
5
5
5
6
6
6
6
6
6
6
6
6
6
6
6
6
6
6
6
6
6
6
6
6
6
6
6
6
6
6
6
6
6
6
6
6
6
6
6
6
6
6
6
6
6
6
6
6
6
6
6
6
6
6
6
6
6
6
6
6
6
6
6
6
6
6
6

</DataArray>
</CellData>
</Piece>
</UnstructuredGrid>
</VTKFile>
