<?xml version="1.0"?>
<VTKFile type="UnstructuredGrid" version="0.1" byte_order="LittleEndian">
<!--This file was created by meshio v5.3.5-->
<UnstructuredGrid>
<Piece NumberOfPoints="164" NumberOfCells="256">
<Points>
<DataArray type="Float64" Name="Points" NumberOfComponents="3" format="ascii">
-3.62777204087e+01
5.93338573254e+02
-3.00000000000e+03
-8.19500009019e+01
7.40929074508e+02
-2.82410848990e+03
-2.12013651697e+02
8.66050259858e+02
-2.67499486775e+03
-4.06667660990e+02
9.49653563059e+02
-2.57536033081e+03
-6.36277720409e+02
9.79011139066e+02
-2.54037333413e+03
-8.65887779828e+02
9.49653563059e+02
-2.57536033081e+03
-1.06054178912e+03
8.66050259858e+02
-2.67499486775e+03
-1.19060543992e+03
7.40929074508e+02
-2.82410848990e+03
-1.23627772041e+03
5.93338573254e+02
-3.00000000000e+03
-1.19060543992e+03
4.45748072000e+02
-3.17589151010e+03
-1.06054178912e+03
3.20626886651e+02
-3.32500513225e+03
-8.65887779828e+02
2.37023583450e+02
-3.42463966919e+03
-6.36277720409e+02
2.07666007442e+02
-3.45962666587e+03
-4.06667660990e+02
2.37023583450e+02
-3.42463966919e+03
-2.12013651697e+02
3.20626886651e+02
-3.32500513225e+03
-8.19500009019e+01
4.45748072000e+02
-3.17589151010e+03
-9.82301878795e+02
6.57836979237e+02
-2.92313379295e+03
-2.35388105079e+02
5.41264947208e+02
-3.06205893092e+03
-5.69871316028e+02
8.40374504474e+02
-2.70559404147e+03
-7.11529394962e+02
3.50161918889e+02
-3.28980665147e+03
-4.01907468113e+02
3.68697219987e+02
-3.26771713980e+03
-3.01147993968e+02
7.32392613644e+02
-2.83428184780e+03
-8.72831799617e+02
8.02387168171e+02
-2.75086558598e+03
-9.56998297522e+02
4.55590063739e+02
-3.16416228109e+03
-3.83495241035e+02
8.36515227620e+02
-2.71019334853e+03
-5.24957334276e+02
6.99549662937e+02
-2.87342255230e+03
-3.68806365849e+02
6.08303991849e+02
-2.98216490863e+03
-5.60624169490e+02
5.42627281744e+02
-3.06043536384e+03
-7.57039155452e+02
6.08228297855e+02
-2.98225511721e+03
-7.59403827432e+02
4.72412129709e+02
-3.14411452353e+03
-7.22504460330e+02
7.28377464595e+02
-2.83906691610e+03
-2.64377961448e+02
4.33055503539e+02
-3.19101792417e+03
-8.89060199783e+02
3.50161918889e+02
-3.28980665147e+03
-7.33474615242e+02
8.59960767873e+02
-2.68225204170e+03
-1.02657022686e+03
7.66800870444e+02
-2.79327568415e+03
-1.06255581105e+03
5.40549452857e+02
-3.06291162388e+03
-1.90023907337e+02
6.50395874092e+02
-2.93200175674e+03
-5.47512317998e+02
3.06492151437e+02
-3.34185025372e+03
-5.83826678727e+02
4.23842427026e+02
-3.20199764120e+03
-9.03659794049e+02
5.46923384679e+02
-3.05531546774e+03
-4.02488458118e+02
4.86298561892e+02
-3.12756531809e+03
-3.62777204087e+01
5.93338573254e+02
-3.00000000000e+03
-8.19500009019e+01
7.40929074508e+02
-2.82410848990e+03
-2.12013651697e+02
8.66050259858e+02
-2.67499486775e+03
-4.06667660990e+02
9.49653563059e+02
-2.57536033081e+03
-6.36277720409e+02
9.79011139066e+02
-2.54037333413e+03
-8.65887779828e+02
9.49653563059e+02
-2.57536033081e+03
-1.06054178912e+03
8.66050259858e+02
-2.67499486775e+03
-1.19060543992e+03
7.40929074508e+02
-2.82410848990e+03
-1.23627772041e+03
5.93338573254e+02
-3.00000000000e+03
-1.19060543992e+03
4.45748072000e+02
-3.17589151010e+03
-1.06054178912e+03
3.20626886651e+02
-3.32500513225e+03
-8.65887779828e+02
2.37023583450e+02
-3.42463966919e+03
-6.36277720409e+02
2.07666007442e+02
-3.45962666587e+03
-4.06667660990e+02
2.37023583450e+02
-3.42463966919e+03
-2.12013651697e+02
3.20626886651e+02
-3.32500513225e+03
-8.19500009019e+01
4.45748072000e+02
-3.17589151010e+03
-9.82301878795e+02
6.57836979237e+02
-2.92313379295e+03
-2.35388105079e+02
5.41264947208e+02
-3.06205893092e+03
-5.69871316028e+02
8.40374504474e+02
-2.70559404147e+03
-7.11529394962e+02
3.50161918889e+02
-3.28980665147e+03
-4.01907468113e+02
3.68697219987e+02
-3.26771713980e+03
-3.01147993968e+02
7.32392613644e+02
-2.83428184780e+03
-8.72831799617e+02
8.02387168171e+02
-2.75086558598e+03
-9.56998297522e+02
4.55590063739e+02
-3.16416228109e+03
-3.83495241035e+02
8.36515227620e+02
-2.71019334853e+03
-5.24957334276e+02
6.99549662937e+02
-2.87342255230e+03
-3.68806365849e+02
6.08303991849e+02
-2.98216490863e+03
-5.60624169490e+02
5.42627281744e+02
-3.06043536384e+03
-7.57039155452e+02
6.08228297855e+02
-2.98225511721e+03
-7.59403827432e+02
4.72412129709e+02
-3.14411452353e+03
-7.22504460330e+02
7.28377464595e+02
-2.83906691610e+03
-2.64377961448e+02
4.33055503539e+02
-3.19101792417e+03
-8.89060199783e+02
3.50161918889e+02
-3.28980665147e+03
-7.33474615242e+02
8.59960767873e+02
-2.68225204170e+03
-1.02657022686e+03
7.66800870444e+02
-2.79327568415e+03
-1.06255581105e+03
5.40549452857e+02
-3.06291162388e+03
-1.90023907337e+02
6.50395874092e+02
-2.93200175674e+03
-5.47512317998e+02
3.06492151437e+02
-3.34185025372e+03
-5.83826678727e+02
4.23842427026e+02
-3.20199764120e+03
-9.03659794049e+02
5.46923384679e+02
-3.05531546774e+03
-4.02488458118e+02
4.86298561892e+02
-3.12756531809e+03
1.39247167980e+02
4.29658966839e+02
-3.00000000000e+03
9.35748874867e+01
5.77249468093e+02
-2.82410848990e+03
-3.64887633081e+01
7.02370653443e+02
-2.67499486775e+03
-2.31142772601e+02
7.85973956644e+02
-2.57536033081e+03
-4.60752832020e+02
8.15331532651e+02
-2.54037333413e+03
-6.90362891439e+02
7.85973956644e+02
-2.57536033081e+03
-8.85016900732e+02
7.02370653443e+02
-2.67499486775e+03
-1.01508055153e+03
5.77249468093e+02
-2.82410848990e+03
-1.06075283202e+03
4.29658966839e+02
-3.00000000000e+03
-1.01508055153e+03
2.82068465585e+02
-3.17589151010e+03
-8.85016900732e+02
1.56947280236e+02
-3.32500513225e+03
-6.90362891439e+02
7.33439770346e+01
-3.42463966919e+03
-4.60752832020e+02
4.39864010275e+01
-3.45962666587e+03
-2.31142772601e+02
7.33439770346e+01
-3.42463966919e+03
-3.64887633081e+01
1.56947280236e+02
-3.32500513225e+03
9.35748874867e+01
2.82068465585e+02
-3.17589151010e+03
-3.85501157466e+02
1.86482312474e+02
-3.28980665147e+03
-5.42147648576e+02
6.95030235725e+02
-2.68374283693e+03
-8.39068547352e+02
3.81288122828e+02
-3.05764612713e+03
-7.08121434506e+01
4.83655900143e+02
-2.93564896075e+03
-7.81473409133e+02
5.67407476355e+02
-2.83583771891e+03
-6.34476559427e+02
2.26776986862e+02
-3.24178532851e+03
-2.34565328910e+02
6.48692719502e+02
-2.73896573837e+03
-1.42041358264e+02
2.85161188911e+02
-3.17220574597e+03
-1.44990189488e+01
3.72601666001e+02
-3.06799824326e+03
-2.65198556211e+02
4.05153668847e+02
-3.02920427692e+03
-2.55159122143e+02
5.40647758235e+02
-2.86772870912e+03
-4.63043301905e+02
4.99903277397e+02
-2.91628609053e+03
-5.29764428503e+02
3.64241917225e+02
-3.07796100389e+03
-6.80842827495e+02
4.59203661243e+02
-2.96479000430e+03
-3.76782071951e+02
3.02472868463e+02
-3.15157448967e+03
-8.24371166880e+01
5.92144412527e+02
-2.80635738636e+03
-7.13535311394e+02
6.72835621205e+02
-2.71019334853e+03
-3.74101443840e+02
7.12031896534e+02
-2.66348104659e+03
-9.07006645091e+02
4.86716267677e+02
-2.93200175674e+03
-8.20248311744e+02
2.73234816746e+02
-3.18641904284e+03
-2.26842404126e+02
1.96767464581e+02
-3.27754928450e+03
-5.42773360088e+02
1.32647419350e+02
-3.35396457876e+03
-6.10120761438e+02
5.73350861291e+02
-2.82875466856e+03
-7.00880134904e+02
3.40949100981e+02
-3.10572030134e+03
-4.13189601135e+02
6.11609458114e+02
-2.78315984835e+03
1.39247167980e+02
4.29658966839e+02
-3.00000000000e+03
9.35748874867e+01
5.77249468093e+02
-2.82410848990e+03
-3.64887633081e+01
7.02370653443e+02
-2.67499486775e+03
-2.31142772601e+02
7.85973956644e+02
-2.57536033081e+03
-4.60752832020e+02
8.15331532651e+02
-2.54037333413e+03
-6.90362891439e+02
7.85973956644e+02
-2.57536033081e+03
-8.85016900732e+02
7.02370653443e+02
-2.67499486775e+03
-1.01508055153e+03
5.77249468093e+02
-2.82410848990e+03
-1.06075283202e+03
4.29658966839e+02
-3.00000000000e+03
-1.01508055153e+03
2.82068465585e+02
-3.17589151010e+03
-8.85016900732e+02
1.56947280236e+02
-3.32500513225e+03
-6.90362891439e+02
7.33439770346e+01
-3.42463966919e+03
-4.60752832020e+02
4.39864010275e+01
-3.45962666587e+03
-2.31142772601e+02
7.33439770346e+01
-3.42463966919e+03
-3.64887633081e+01
1.56947280236e+02
-3.32500513225e+03
9.35748874867e+01
2.82068465585e+02
-3.17589151010e+03
-3.85501157466e+02
1.86482312474e+02
-3.28980665147e+03
-5.42147648576e+02
6.95030235725e+02
-2.68374283693e+03
-8.39068547352e+02
3.81288122828e+02
-3.05764612713e+03
-7.08121434506e+01
4.83655900143e+02
-2.93564896075e+03
-7.81473409133e+02
5.67407476355e+02
-2.83583771891e+03
-6.34476559427e+02
2.26776986862e+02
-3.24178532851e+03
-2.34565328910e+02
6.48692719502e+02
-2.73896573837e+03
-1.42041358264e+02
2.85161188911e+02
-3.17220574597e+03
-1.44990189488e+01
3.72601666001e+02
-3.06799824326e+03
-2.65198556211e+02
4.05153668847e+02
-3.02920427692e+03
-2.55159122143e+02
5.40647758235e+02
-2.86772870912e+03
-4.63043301905e+02
4.99903277397e+02
-2.91628609053e+03
-5.29764428503e+02
3.64241917225e+02
-3.07796100389e+03
-6.80842827495e+02
4.59203661243e+02
-2.96479000430e+03
-3.76782071951e+02
3.02472868463e+02
-3.15157448967e+03
-8.24371166880e+01
5.92144412527e+02
-2.80635738636e+03
-7.13535311394e+02
6.72835621205e+02
-2.71019334853e+03
-3.74101443840e+02
7.12031896534e+02
-2.66348104659e+03
-9.07006645091e+02
4.86716267677e+02
-2.93200175674e+03
-8.20248311744e+02
2.73234816746e+02
-3.18641904284e+03
-2.26842404126e+02
1.96767464581e+02
-3.27754928450e+03
-5.42773360088e+02
1.32647419350e+02
-3.35396457876e+03
-6.10120761438e+02
5.73350861291e+02
-2.82875466856e+03
-7.00880134904e+02
3.40949100981e+02
-3.10572030134e+03
-4.13189601135e+02
6.11609458114e+02
-2.78315984835e+03

</DataArray>
</Points>
<Cells>
<DataArray type="Int64" Name="connectivity" format="ascii">
0
1
36
0
15
17
0
17
36
1
2
21
1
21
36
2
3
24
2
21
24
3
4
18
3
18
24
4
5
33
4
18
33
5
6
22
5
22
33
6
7
34
6
22
34
7
8
16
7
16
34
8
9
35
8
16
35
9
10
23
9
23
35
10
11
32
10
23
32
11
12
19
11
19
32
12
13
37
12
19
37
13
14
20
13
20
37
14
15
31
14
20
31
15
17
31
16
22
30
16
22
34
16
28
30
16
28
39
16
35
39
17
26
36
17
26
40
17
31
40
18
24
25
18
25
30
18
30
33
19
29
32
19
29
38
19
37
38
20
31
40
20
37
38
20
38
40
21
24
25
21
25
26
21
26
36
22
30
33
23
29
32
23
29
39
23
35
39
25
26
27
25
27
28
25
28
30
26
27
40
27
28
29
27
29
38
27
38
40
28
29
39
41
42
77
41
56
58
41
58
77
42
43
62
42
62
77
43
44
65
43
62
65
44
45
59
44
59
65
45
46
74
45
59
74
46
47
63
46
63
74
47
48
75
47
63
75
48
49
57
48
57
75
49
50
76
49
57
76
50
51
64
50
64
76
51
52
73
51
64
73
52
53
60
52
60
73
53
54
78
53
60
78
54
55
61
54
61
78
55
56
72
55
61
72
56
58
72
57
63
71
57
63
75
57
69
71
57
69
80
57
76
80
58
67
77
58
67
81
58
72
81
59
65
66
59
66
71
59
71
74
60
70
73
60
70
79
60
78
79
61
72
81
61
78
79
61
79
81
62
65
66
62
66
67
62
67
77
63
71
74
64
70
73
64
70
80
64
76
80
66
67
68
66
68
69
66
69
71
67
68
81
68
69
70
68
70
79
68
79
81
69
70
80
82
83
101
82
97
106
82
101
106
83
84
113
83
101
113
84
85
104
84
104
113
85
86
115
85
104
115
86
87
99
86
99
115
87
88
114
87
99
114
88
89
102
88
102
114
89
90
116
89
102
116
90
91
100
90
100
116
91
92
117
91
100
117
92
93
103
92
103
117
93
94
119
93
103
119
94
95
98
94
98
119
95
96
118
95
98
118
96
97
105
96
105
118
97
105
106
98
103
112
98
103
119
98
112
118
99
114
120
99
115
122
99
120
122
100
111
116
100
111
121
100
117
121
101
106
107
101
107
108
101
108
113
102
111
116
102
111
120
102
114
120
103
110
112
103
110
121
103
117
121
104
108
113
104
108
122
104
115
122
105
106
107
105
107
112
105
112
118
107
108
109
107
109
110
107
110
112
108
109
122
109
110
111
109
111
120
109
120
122
110
111
121
123
124
142
123
138
147
123
142
147
124
125
154
124
142
154
125
126
145
125
145
154
126
127
156
126
145
156
127
128
140
127
140
156
128
129
155
128
140
155
129
130
143
129
143
155
130
131
157
130
143
157
131
132
141
131
141
157
132
133
158
132
141
158
133
134
144
133
144
158
134
135
160
134
144
160
135
136
139
135
139
160
136
137
159
136
139
159
137
138
146
137
146
159
138
146
147
139
144
153
139
144
160
139
153
159
140
155
161
140
156
163
140
161
163
141
152
157
141
152
162
141
158
162
142
147
148
142
148
149
142
149
154
143
152
157
143
152
161
143
155
161
144
151
153
144
151
162
144
158
162
145
149
154
145
149
163
145
156
163
146
147
148
146
148
153
146
153
159
148
149
150
148
150
151
148
151
153
149
150
163
150
151
152
150
152
161
150
161
163
151
152
162

</DataArray>
<DataArray type="Int64" Name="offsets" format="ascii">
3
6
9
12
15
18
21
24
27
30
33
36
39
42
45
48
51
54
57
60
63
66
69
72
75
78
81
84
87
90
93
96
99
102
105
108
111
114
117
120
123
126
129
132
135
138
141
144
147
150
153
156
159
162
165
168
171
174
177
180
183
186
189
192
195
198
201
204
207
210
213
216
219
222
225
228
231
234
237
240
243
246
249
252
255
258
261
264
267
270
273
276
279
282
285
288
291
294
297
300
303
306
309
312
315
318
321
324
327
330
333
336
339
342
345
348
351
354
357
360
363
366
369
372
375
378
381
384
387
390
393
396
399
402
405
408
411
414
417
420
423
426
429
432
435
438
441
444
447
450
453
456
459
462
465
468
471
474
477
480
483
486
489
492
495
498
501
504
507
510
513
516
519
522
525
528
531
534
537
540
543
546
549
552
555
558
561
564
567
570
573
576
579
582
585
588
591
594
597
600
603
606
609
612
615
618
621
624
627
630
633
636
639
642
645
648
651
654
657
660
663
666
669
672
675
678
681
684
687
690
693
696
699
702
705
708
711
714
717
720
723
726
729
732
735
738
741
744
747
750
753
756
759
762
765
768

</DataArray>
<DataArray type="Int64" Name="types" format="ascii">
5
5
5
5
5
5
5
5
5
5
5
5
5
5
5
5
5
5
5
5
5
5
5
5
5
5
5
5
5
5
5
5
5
5
5
5
5
5
5
5
5
5
5
5
5
5
5
5
5
5
5
5
5
5
5
5
5
5
5
5
5
5
5
5
5
5
5
5
5
5
5
5
5
5
5
5
5
5
5
5
5
5
5
5
5
5
5
5
5
5
5
5
5
5
5
5
5
5
5
5
5
5
5
5
5
5
5
5
5
5
5
5
5
5
5
5
5
5
5
5
5
5
5
5
5
5
5
5
5
5
5
5
5
5
5
5
5
5
5
5
5
5
5
5
5
5
5
5
5
5
5
5
5
5
5
5
5
5
5
5
5
5
5
5
5
5
5
5
5
5
5
5
5
5
5
5
5
5
5
5
5
5
5
5
5
5
5
5
5
5
5
5
5
5
5
5
5
5
5
5
5
5
5
5
5
5
5
5
5
5
5
5
5
5
5
5
5
5
5
5
5
5
5
5
5
5
5
5
5
5
5
5
5
5
5
5
5
5
5
5
5
5
5
5
5
5
5
5
5
5
5
5
5
5
5
5

</DataArray>
</Cells>
<PointData>
<DataArray type="Int64" Name="node_id" format="ascii">
0
1
2
3
4
5
6
7
8
9
10
11
12
13
14
15
16
17
18
19
20
21
22
23
24
25
26
27
28
29
30
31
32
33
34
35
36
37
38
39
40
41
42
43
44
45
46
47
48
49
50
51
52
53
54
55
56
57
58
59
60
61
62
63
64
65
66
67
68
69
70
71
72
73
74
75
76
77
78
79
80
81
0
1
2
3
4
5
6
7
8
9
10
11
12
13
14
15
16
17
18
19
20
21
22
23
24
25
26
27
28
29
30
31
32
33
34
35
36
37
38
39
40
41
42
43
44
45
46
47
48
49
50
51
52
53
54
55
56
57
58
59
60
61
62
63
64
65
66
67
68
69
70
71
72
73
74
75
76
77
78
79
80
81

</DataArray>
</PointData>
<CellData>
<DataArray type="Int64" Name="cell_id" format="ascii">
0
1
2
3
4
5
6
7
8
9
10
11
12
13
14
15
16
17
18
19
20
21
22
23
24
25
26
27
28
29
30
31
32
33
34
35
36
37
38
39
40
41
42
43
44
45
46
47
48
49
50
51
52
53
54
55
56
57
58
59
60
61
62
63
64
65
66
67
68
69
70
71
72
73
74
75
76
77
78
79
80
81
82
83
84
85
86
87
88
89
90
91
92
93
94
95
96
97
98
99
100
101
102
103
104
105
106
107
108
109
110
111
112
113
114
115
116
117
118
119
120
121
122
123
124
125
126
127
0
1
2
3
4
5
6
7
8
9
10
11
12
13
14
15
16
17
18
19
20
21
22
23
24
25
26
27
28
29
30
31
32
33
34
35
36
37
38
39
40
41
42
43
44
45
46
47
48
49
50
51
52
53
54
55
56
57
58
59
60
61
62
63
64
65
66
67
68
69
70
71
72
73
74
75
76
77
78
79
80
81
82
83
84
85
86
87
88
89
90
91
92
93
94
95
96
97
98
99
100
101
102
103
104
105
106
107
108
109
110
111
112
113
114
115
116
117
118
119
120
121
122
123
124
125
126
127

</DataArray>
<DataArray type="Int64" Name="grid_dim" format="ascii">
2
2
2
2
2
2
2
2
2
2
2
2
2
2
2
2
2
2
2
2
2
2
2
2
2
2
2
2
2
2
2
2
2
2
2
2
2
2
2
2
2
2
2
2
2
2
2
2
2
2
2
2
2
2
2
2
2
2
2
2
2
2
2
2
2
2
2
2
2
2
2
2
2
2
2
2
2
2
2
2
2
2
2
2
2
2
2
2
2
2
2
2
2
2
2
2
2
2
2
2
2
2
2
2
2
2
2
2
2
2
2
2
2
2
2
2
2
2
2
2
2
2
2
2
2
2
2
2
2
2
2
2
2
2
2
2
2
2
2
2
2
2
2
2
2
2
2
2
2
2
2
2
2
2
2
2
2
2
2
2
2
2
2
2
2
2
2
2
2
2
2
2
2
2
2
2
2
2
2
2
2
2
2
2
2
2
2
2
2
2
2
2
2
2
2
2
2
2
2
2
2
2
2
2
2
2
2
2
2
2
2
2
2
2
2
2
2
2
2
2
2
2
2
2
2
2
2
2
2
2
2
2
2
2
2
2
2
2
2
2
2
2
2
2
2
2
2
2
2
2
2
2
2
2
2
2

</DataArray>
<DataArray type="Float64" Name="interface_darcy_flux" format="ascii">
-1.24635953612e-05
-1.86299187148e-05
-9.85630959203e-06
-1.41053956391e-05
-7.95975484137e-06
-1.13270789211e-05
-7.61301997144e-06
-1.50596733048e-05
-8.09613695659e-06
-1.27624919824e-05
-7.99186501386e-06
-1.28489869993e-05
-7.14698960332e-06
-1.02117946650e-05
-6.84912318417e-06
-1.55148505405e-05
-7.64193289513e-06
-1.19424058013e-05
-8.60892128694e-06
-1.59511876773e-05
-7.77701310896e-06
-1.19572527690e-05
-8.05689403986e-06
-1.43581069077e-05
-7.97316525476e-06
-1.26008363449e-05
-8.49454061025e-06
-1.74900048391e-05
-9.46778954990e-06
-2.84059213065e-05
-1.29610587812e-05
-1.30337324178e-05
-8.05645531861e-06
-5.79312227963e-06
-7.89566524171e-06
-5.81951208841e-06
-5.04407830661e-06
-7.45204164736e-06
-8.12169159066e-06
-8.44537429403e-06
-7.65975271318e-06
-7.56549310279e-06
-5.93334233618e-06
-7.03315786640e-06
-6.52322531179e-06
-6.69300272891e-06
-8.45160573915e-06
-8.06410142783e-06
-9.21741400319e-06
-8.29726785649e-06
-8.73179212504e-06
-7.29710401309e-06
-5.22872576517e-06
-6.64595889234e-06
-4.97647191102e-06
-4.13209044237e-06
-9.69818731640e-06
-1.04551768998e-05
-7.19820266302e-06
-8.34287757267e-06
-8.46846204038e-06
-7.53816961719e-06
-7.79672053672e-06
-5.79283016865e-06
-1.01099535503e-05
-1.53249956776e-05
-8.75448002724e-06
-1.18049754162e-05
-6.84520908913e-06
-9.34187543985e-06
-7.69367550606e-06
-1.35536459969e-05
-7.69830476963e-06
-1.12902542525e-05
-8.10367502330e-06
-1.21946051586e-05
-6.98135226630e-06
-9.22950451918e-06
-6.69143128042e-06
-1.41526962585e-05
-7.12682500110e-06
-1.11700848779e-05
-8.68933257220e-06
-1.57672661028e-05
-8.28178791031e-06
-9.70953121696e-06
-8.18164555513e-06
-1.28666964505e-05
-6.53038343107e-06
-1.13976197555e-05
-8.09285383667e-06
-1.37736525052e-05
-8.71634439039e-06
-1.72807526421e-05
-9.61482824900e-06
-9.98643826713e-06
-7.57869755027e-06
-5.46194273141e-06
-6.84200336576e-06
-5.24946931192e-06
-5.20226391478e-06
-5.76458278843e-06
-5.59231220503e-06
-6.15326774068e-06
-6.92374939109e-06
-6.49621207473e-06
-5.76195143762e-06
-5.81358301875e-06
-4.86331062629e-06
-5.27228413228e-06
-6.23378452995e-06
-6.39701815414e-06
-6.79625020727e-06
-7.03234011263e-06
-6.45842945431e-06
-5.73691969873e-06
-4.99638958035e-06
-6.10921552535e-06
-4.28996626836e-06
-4.04417391222e-06
-6.64496935572e-06
-7.44192920627e-06
-5.67076067069e-06
-5.56358588577e-06
-6.16401585536e-06
-5.39125379116e-06
-5.38653880428e-06
-4.59047281390e-06
-8.70478035892e-06
-6.16271105327e-06
-5.34683785253e-06
-6.40101258397e-06
-4.94660602001e-06
-8.72323883484e-06
-4.99934529321e-06
-6.80394755873e-06
-5.30401546348e-06
-6.52432868043e-06
-4.37277855578e-06
-5.29095048706e-06
-4.24122129556e-06
-7.36612216453e-06
-4.47869049918e-06
-4.99994040530e-06
-4.26455245705e-06
-7.52962634614e-06
-4.30264323249e-06
-7.27022773305e-06
-4.93429735752e-06
-9.44263546796e-06
-6.09941735923e-06
-5.74937995107e-06
-4.39288142886e-06
-1.01577229352e-05
-5.02916856302e-06
-7.64608598229e-06
-5.28228860734e-06
-8.13940570163e-06
-4.90353943748e-06
-5.14594048975e-06
-5.33291159007e-06
-4.10520268634e-06
-3.60714294781e-06
-3.57099152191e-06
-3.14087771591e-06
-3.85147425759e-06
-3.94325827711e-06
-3.03074792855e-06
-2.68664282790e-06
-5.50317840015e-06
-4.92962316438e-06
-4.15654632422e-06
-3.85144809527e-06
-3.16259497739e-06
-3.18129767007e-06
-4.75308977371e-06
-3.72616789727e-06
-3.43277846331e-06
-3.54886573997e-06
-3.36138654977e-06
-3.29708755563e-06
-5.22035895801e-06
-4.67646742823e-06
-4.38905608046e-06
-4.66727053869e-06
-5.28344212551e-06
-3.68322558839e-06
-3.58474609280e-06
-4.30720753045e-06
-3.55587870260e-06
-3.37927550631e-06
-3.34477558000e-06
-5.21177176482e-06
-5.21815314386e-06
-1.49612249966e-06
-3.81070065668e-06
2.91534988062e-07
7.46408252215e-07
1.99328045468e-06
3.16310172600e-06
4.55389177058e-06
5.68252304270e-06
4.97599618730e-06
4.48029224037e-06
4.88091762515e-06
7.39168379659e-06
5.18186490750e-06
4.70178498345e-06
5.22600702519e-06
7.66474993562e-06
5.37314954570e-06
4.48207769680e-06
5.99821442537e-06
4.63913507113e-06
7.16272471325e-06
-3.19754727178e-06
3.38619423145e-06
-4.54681517355e-06
8.49730708344e-07
-4.94318525433e-06
1.03555037469e-07
-4.36907937329e-06
-6.71025438379e-07
-1.85746850029e-06
1.27132277400e-05
7.06012456243e-06
8.55826669545e-06
5.51247121645e-06
4.90846449299e-06
6.54628414741e-06
6.47892015243e-06
5.43011055198e-06
4.45234635877e-06
1.01717611515e-05
1.18393619886e-05
7.07127983760e-06
6.25058109124e-06
5.74569730410e-06
5.00586596495e-06
1.14123335914e-05
7.66112564631e-06
6.10264852414e-06
6.19822878884e-06
6.59332702811e-06
5.31997641843e-06
1.20326623180e-05
1.54225455061e-05
1.10436306564e-05
1.16637609960e-05
1.39766195844e-05
1.07376998302e-05
7.70355389586e-06
9.48032163346e-06
7.20051392339e-06
6.66503563174e-06
6.82875367339e-06

</DataArray>
<DataArray type="Int64" Name="interface_id" format="ascii">
0
0
0
0
0
0
0
0
0
0
0
0
0
0
0
0
0
0
0
0
0
0
0
0
0
0
0
0
0
0
0
0
0
0
0
0
0
0
0
0
0
0
0
0
0
0
0
0
0
0
0
0
0
0
0
0
0
0
0
0
0
0
0
0
0
0
0
0
0
0
0
0
0
0
0
0
0
0
0
0
0
0
0
0
0
0
0
0
0
0
0
0
0
0
0
0
0
0
0
0
0
0
0
0
0
0
0
0
0
0
0
0
0
0
0
0
0
0
0
0
0
0
0
0
0
0
0
0
1
1
1
1
1
1
1
1
1
1
1
1
1
1
1
1
1
1
1
1
1
1
1
1
1
1
1
1
1
1
1
1
1
1
1
1
1
1
1
1
1
1
1
1
1
1
1
1
1
1
1
1
1
1
1
1
1
1
1
1
1
1
1
1
1
1
1
1
1
1
1
1
1
1
1
1
1
1
1
1
1
1
1
1
1
1
1
1
1
1
1
1
1
1
1
1
1
1
1
1
1
1
1
1
1
1
1
1
1
1
1
1
1
1
1
1
1
1
1
1
1
1
1
1
1
1
1
1

</DataArray>
<DataArray type="Int64" Name="is_mortar" format="ascii">
1
1
1
1
1
1
1
1
1
1
1
1
1
1
1
1
1
1
1
1
1
1
1
1
1
1
1
1
1
1
1
1
1
1
1
1
1
1
1
1
1
1
1
1
1
1
1
1
1
1
1
1
1
1
1
1
1
1
1
1
1
1
1
1
1
1
1
1
1
1
1
1
1
1
1
1
1
1
1
1
1
1
1
1
1
1
1
1
1
1
1
1
1
1
1
1
1
1
1
1
1
1
1
1
1
1
1
1
1
1
1
1
1
1
1
1
1
1
1
1
1
1
1
1
1
1
1
1
1
1
1
1
1
1
1
1
1
1
1
1
1
1
1
1
1
1
1
1
1
1
1
1
1
1
1
1
1
1
1
1
1
1
1
1
1
1
1
1
1
1
1
1
1
1
1
1
1
1
1
1
1
1
1
1
1
1
1
1
1
1
1
1
1
1
1
1
1
1
1
1
1
1
1
1
1
1
1
1
1
1
1
1
1
1
1
1
1
1
1
1
1
1
1
1
1
1
1
1
1
1
1
1
1
1
1
1
1
1
1
1
1
1
1
1
1
1
1
1
1
1
1
1
1
1
1
1

</DataArray>
<DataArray type="Int64" Name="mortar_side" format="ascii">
1
1
1
1
1
1
1
1
1
1
1
1
1
1
1
1
1
1
1
1
1
1
1
1
1
1
1
1
1
1
1
1
1
1
1
1
1
1
1
1
1
1
1
1
1
1
1
1
1
1
1
1
1
1
1
1
1
1
1
1
1
1
1
1
2
2
2
2
2
2
2
2
2
2
2
2
2
2
2
2
2
2
2
2
2
2
2
2
2
2
2
2
2
2
2
2
2
2
2
2
2
2
2
2
2
2
2
2
2
2
2
2
2
2
2
2
2
2
2
2
2
2
2
2
2
2
2
2
1
1
1
1
1
1
1
1
1
1
1
1
1
1
1
1
1
1
1
1
1
1
1
1
1
1
1
1
1
1
1
1
1
1
1
1
1
1
1
1
1
1
1
1
1
1
1
1
1
1
1
1
1
1
1
1
1
1
1
1
1
1
1
1
2
2
2
2
2
2
2
2
2
2
2
2
2
2
2
2
2
2
2
2
2
2
2
2
2
2
2
2
2
2
2
2
2
2
2
2
2
2
2
2
2
2
2
2
2
2
2
2
2
2
2
2
2
2
2
2
2
2
2
2
2
2
2
2

</DataArray>
<DataArray type="Float64" Name="u_interface" NumberOfComponents="3" format="ascii">
-2.85348437920e-04
1.11694177339e-04
-7.26815720670e-04
-2.02236715427e-04
5.31297054771e-05
-6.52632018294e-04
-2.69231865791e-04
2.64588337419e-05
-6.94539969822e-04
-4.03714076058e-04
7.79194612475e-06
-7.74365173250e-04
-3.61309571620e-04
6.87599528152e-06
-7.55535354321e-04
-5.50106858768e-04
-1.71200923097e-04
-8.15957112788e-04
-4.80737230682e-04
-1.21648049906e-04
-8.00306429422e-04
-6.53218834438e-04
-4.71094952710e-04
-8.15876847149e-04
-5.95821253047e-04
-3.48266507302e-04
-8.17147857632e-04
-7.04597523284e-04
-7.63915071578e-04
-7.96121898776e-04
-6.66279402153e-04
-6.30082607807e-04
-8.05634386406e-04
-7.00042646637e-04
-1.02696903279e-03
-7.69668231833e-04
-6.89407502144e-04
-8.91372069775e-04
-7.81864335091e-04
-6.55058598269e-04
-1.22902057561e-03
-7.29284896841e-04
-6.63005619179e-04
-1.11116212343e-03
-7.53306971197e-04
-5.94851733604e-04
-1.31483250647e-03
-6.76019793912e-04
-6.25457224191e-04
-1.22855920113e-03
-7.00763711632e-04
-5.16453113613e-04
-1.33857968452e-03
-6.10158919517e-04
-5.58282930416e-04
-1.27986465824e-03
-6.41147363695e-04
-4.19381670925e-04
-1.20751412383e-03
-5.45766912415e-04
-4.75384149123e-04
-1.23882839282e-03
-5.77639619921e-04
-3.21860287511e-04
-1.02725495298e-03
-4.83484795755e-04
-3.79544914907e-04
-1.10010255786e-03
-5.18388444767e-04
-2.38777141119e-04
-7.76928959785e-04
-4.59712865698e-04
-2.98213917262e-04
-8.98181491084e-04
-4.85399835716e-04
-1.63699416005e-04
-5.02111903351e-04
-4.61442225003e-04
-2.22112947169e-04
-6.56299048221e-04
-4.74114840502e-04
-1.36147850113e-04
-2.65409885439e-04
-5.04313565091e-04
-1.75493707259e-04
-4.10932622000e-04
-4.91338333916e-04
-1.43691895192e-04
-6.68194440361e-05
-5.65704961742e-04
-1.62798786496e-04
-2.04919648997e-04
-5.42186944808e-04
-1.98608139037e-04
-5.70105714795e-05
-6.12804864882e-04
-5.97053777193e-04
-9.71351343076e-04
-7.15912951074e-04
-6.27191856014e-04
-1.10319003538e-03
-7.23494357235e-04
-5.41787115230e-04
-9.26022013430e-04
-6.78569027040e-04
-5.16037708716e-04
-1.01263315100e-03
-6.43194374583e-04
-5.25329069798e-04
-1.14592825269e-03
-6.30355311300e-04
-3.18756719908e-04
-1.28593392922e-04
-6.90986131029e-04
-3.06833746009e-04
-2.44734729719e-04
-6.46536861730e-04
-2.52451710826e-04
-2.06946563060e-04
-6.12454796206e-04
-5.46603242335e-04
-4.20070552278e-04
-7.76297047037e-04
-5.52590675192e-04
-5.98759731332e-04
-7.44457481524e-04
-6.15029980217e-04
-6.90178567305e-04
-7.67017884190e-04
-3.45480617765e-04
-8.73437713623e-04
-5.23950564823e-04
-3.29905036434e-04
-7.42494314983e-04
-5.37842306773e-04
-2.70010756494e-04
-6.43691374481e-04
-5.08847413171e-04
-2.32274752762e-04
-2.91918834826e-04
-5.68876937380e-04
-2.41559122740e-04
-5.04709587569e-04
-5.17905764393e-04
-2.65882101217e-04
-4.40558122999e-04
-5.55258791410e-04
-4.86087573575e-04
-2.90753941410e-04
-7.69514707362e-04
-4.26532447421e-04
-3.02235422237e-04
-7.26313792506e-04
-3.73255913829e-04
-1.41152524392e-04
-7.28729507215e-04
-6.28483980653e-04
-8.43159595612e-04
-7.55208742265e-04
-3.92101297508e-04
-9.85119244652e-04
-5.42332102356e-04
-4.37212689190e-04
-9.99745840042e-04
-5.77502191944e-04
-4.75228354187e-04
-1.13023914390e-03
-5.91774403411e-04
-4.08744973195e-04
-4.47908651766e-04
-6.73755971698e-04
-4.48341907700e-04
-6.37286420923e-04
-6.59440201485e-04
-5.09783201443e-04
-7.07005091197e-04
-6.92925484710e-04
-3.44027324416e-04
-4.01901915245e-04
-6.32627209920e-04
-4.17847506485e-04
-7.54009905919e-04
-6.09345153237e-04
-3.58188936954e-04
-6.75674773195e-04
-5.76916532263e-04
-3.23082491453e-04
-5.10804795277e-04
-5.86548367913e-04
-4.53381301462e-04
-9.11982690539e-04
-6.07872958301e-04
-1.28325363728e-04
1.88747132352e-04
-6.63859510394e-04
-4.46404500201e-05
1.40420796705e-04
-5.78839466189e-04
-7.41486674211e-05
1.33543393995e-04
-6.12839790377e-04
-2.17696705713e-04
9.09467403819e-05
-7.08522646158e-04
-1.38836454071e-04
1.15503783398e-04
-6.66918735225e-04
-3.06512630261e-04
-6.35066781972e-05
-7.43343161963e-04
-2.29799657253e-04
-3.62788372706e-06
-7.05187936463e-04
-3.62424527954e-04
-2.94677249194e-04
-7.49425707008e-04
-2.92938615542e-04
-1.76585099273e-04
-7.24284045173e-04
-3.98984768507e-04
-5.66222998354e-04
-7.25019918806e-04
-3.33899986532e-04
-4.16720593775e-04
-7.19602098106e-04
-3.85650408171e-04
-8.23697912717e-04
-6.97995963907e-04
-3.44922860961e-04
-6.69297121709e-04
-6.88599922042e-04
-3.62159340657e-04
-1.04633867912e-03
-6.57831276378e-04
-3.34748141313e-04
-8.75252780921e-04
-6.75031038672e-04
-2.70371676835e-04
-1.08482278615e-03
-5.99418825492e-04
-2.62252059825e-04
-9.96921174863e-04
-6.17119619370e-04
-2.21686052953e-04
-1.11686094485e-03
-5.46433957969e-04
-2.04721486793e-04
-1.02530284457e-03
-5.60487485149e-04
-1.59112547346e-04
-9.97846070186e-04
-4.98059107920e-04
-1.54644121538e-04
-9.85552167960e-04
-5.12942417642e-04
-1.06211841573e-04
-8.21182356980e-04
-4.62892800331e-04
-1.04466875551e-04
-8.50093612050e-04
-4.67727172642e-04
-4.21133427244e-05
-5.79413966381e-04
-4.26704815891e-04
-4.09512112690e-05
-6.54049206712e-04
-4.34950552091e-04
-1.61512917554e-05
-3.68087921346e-04
-4.25901881237e-04
-1.67835185636e-05
-4.50084544752e-04
-4.18087974735e-04
7.12589316445e-06
-1.41765344177e-04
-4.62612437329e-04
2.22237106033e-06
-2.49973999515e-04
-4.52179500450e-04
8.47863398434e-06
3.92979324010e-05
-5.05146228663e-04
1.49292380111e-05
-6.78034598826e-05
-4.79035400636e-04
-9.51606054492e-06
5.42015627619e-05
-5.33576299181e-04
-2.01600131497e-04
-6.66766812610e-04
-6.33076238677e-04
-2.35274682207e-04
-8.10511409475e-04
-6.39378371352e-04
-1.51035670491e-04
-6.08975262641e-04
-6.02034460630e-04
-1.30224691435e-04
-6.88305140934e-04
-5.74549306442e-04
-1.43613688866e-04
-8.50470815594e-04
-5.56023912779e-04
-6.49579385908e-05
2.67627079017e-05
-5.88448411505e-04
-3.85062835926e-05
-4.62674339576e-05
-5.57893908152e-04
-1.34861308988e-05
-3.25751930979e-05
-5.27830102844e-04
-1.95817292388e-04
-2.05028859654e-04
-6.72972117840e-04
-1.75447802066e-04
-3.47817243863e-04
-6.46307074687e-04
-2.39365872350e-04
-4.47198079515e-04
-6.69569818983e-04
-3.07085427870e-05
-5.80799818637e-04
-4.59281479070e-04
-2.69145774643e-05
-4.64882908524e-04
-4.67364800289e-04
-3.98280772115e-06
-4.05040675998e-04
-4.39302853479e-04
2.64878880452e-06
-1.08729200249e-04
-4.96257946767e-04
8.31370862661e-06
-2.88445346076e-04
-4.60463673155e-04
-3.40869515159e-06
-2.18759137594e-04
-4.91216172696e-04
-1.62216772187e-04
-1.02949189249e-04
-6.61865410656e-04
-1.07546785489e-04
-9.60326608438e-05
-6.22703918815e-04
-9.96112320050e-05
1.63810346667e-05
-6.19037580357e-04
-2.44012813097e-04
-5.85244954431e-04
-6.53296302728e-04
-6.44769136719e-05
-6.79114346831e-04
-4.87328655780e-04
-6.97336365050e-05
-6.84112555873e-04
-5.17267649270e-04
-1.08729376041e-04
-8.38828220472e-04
-5.24995351174e-04
-6.83577872151e-05
-1.92072124770e-04
-5.89120806489e-04
-8.16463592745e-05
-3.53032337722e-04
-5.72930954206e-04
-1.31068807759e-04
-4.17325534488e-04
-6.05316786364e-04
-4.21577189576e-05
-1.61241134044e-04
-5.55880893472e-04
-6.47101786731e-05
-4.53572168402e-04
-5.32479040661e-04
-3.44212257264e-05
-3.97362423737e-04
-5.04286905229e-04
-2.33874001344e-05
-2.56532715549e-04
-5.17589165135e-04
-8.32250949177e-05
-5.87864839093e-04
-5.39914315948e-04
-3.49167346483e-04
8.66254865181e-05
-7.75816634341e-04
-2.90801544487e-04
7.55826870262e-05
-7.21299866941e-04
-3.49905232097e-04