<?xml version="1.0"?>
<VTKFile type="UnstructuredGrid" version="0.1" byte_order="LittleEndian">
<!--This file was created by meshio v5.3.5-->
<UnstructuredGrid>
<Piece NumberOfPoints="132" NumberOfCells="108">
<Points>
<DataArray type="Float64" Name="Points" NumberOfComponents="3" format="ascii">
1.39393398282e+03
1.39393398282e+03
0.00000000000e+00
1.41179535368e+03
1.41179535368e+03
0.00000000000e+00
1.43232233047e+03
1.43232233047e+03
0.00000000000e+00
1.45342838492e+03
1.45342838492e+03
0.00000000000e+00
1.47071067812e+03
1.47071067812e+03
0.00000000000e+00
1.47071067812e+03
1.47071067812e+03
0.00000000000e+00
1.48193258519e+03
1.48193258519e+03
0.00000000000e+00
1.49342724784e+03
1.49342724784e+03
0.00000000000e+00
1.49342724784e+03
1.49342724784e+03
0.00000000000e+00
1.50904698282e+03
1.50904698282e+03
0.00000000000e+00
1.52763241449e+03
1.52763241449e+03
0.00000000000e+00
1.54974663251e+03
1.54974663251e+03
0.00000000000e+00
1.57790632484e+03
1.57790632484e+03
0.00000000000e+00
1.60606601718e+03
1.60606601718e+03
0.00000000000e+00
1.39393398282e+03
1.39393398282e+03
0.00000000000e+00
1.41179535368e+03
1.41179535368e+03
0.00000000000e+00
1.43232233047e+03
1.43232233047e+03
0.00000000000e+00
1.45342838492e+03
1.45342838492e+03
0.00000000000e+00
1.47071067812e+03
1.47071067812e+03
0.00000000000e+00
1.47071067812e+03
1.47071067812e+03
0.00000000000e+00
1.48193258519e+03
1.48193258519e+03
0.00000000000e+00
1.49342724784e+03
1.49342724784e+03
0.00000000000e+00
1.49342724784e+03
1.49342724784e+03
0.00000000000e+00
1.50904698282e+03
1.50904698282e+03
0.00000000000e+00
1.52763241449e+03
1.52763241449e+03
0.00000000000e+00
1.54974663251e+03
1.54974663251e+03
0.00000000000e+00
1.57790632484e+03
1.57790632484e+03
0.00000000000e+00
1.60606601718e+03
1.60606601718e+03
0.00000000000e+00
1.53858192988e+03
1.44259748515e+03
-3.17609274809e-14
1.52114931535e+03
1.44981831051e+03
-2.75711842631e-14
1.50464630400e+03
1.45665408163e+03
-2.36048612666e-14
1.48715643064e+03
1.46389862438e+03
-1.94013564997e-14
1.47071067812e+03
1.47071067812e+03
-1.54487950524e-14
1.47071067812e+03
1.47071067812e+03
-1.54487950524e-14
1.45304681743e+03
1.47802728878e+03
-1.12034742825e-14
1.43658747974e+03
1.48484496968e+03
-7.24764778577e-15
1.42125052293e+03
1.49119774519e+03
-3.56157357826e-15
1.42125052293e+03
1.49119774519e+03
-3.56157357826e-15
1.40130004629e+03
1.49946150319e+03
1.23331097877e-15
1.38324876479e+03
1.50693858881e+03
5.57174421368e-15
1.36953298920e+03
1.51261984908e+03
8.86818478458e-15
1.35689390814e+03
1.51785512787e+03
1.19058532910e-14
1.34524700666e+03
1.52267943242e+03
1.47050620056e-14
1.33447013049e+03
1.52714336069e+03
1.72951694016e-14
1.32076403469e+03
1.53282061146e+03
2.05892835364e-14
1.30333253839e+03
1.54004097364e+03
2.47787580011e-14
1.26141807012e+03
1.55740251485e+03
3.48524539966e-14
1.53858192988e+03
1.44259748515e+03
-3.17609274809e-14
1.52114931535e+03
1.44981831051e+03
-2.75711842631e-14
1.50464630400e+03
1.45665408163e+03
-2.36048612666e-14
1.48715643064e+03
1.46389862438e+03
-1.94013564997e-14
1.47071067812e+03
1.47071067812e+03
-1.54487950524e-14
1.47071067812e+03
1.47071067812e+03
-1.54487950524e-14
1.45304681743e+03
1.47802728878e+03
-1.12034742825e-14
1.43658747974e+03
1.48484496968e+03
-7.24764778577e-15
1.42125052293e+03
1.49119774519e+03
-3.56157357826e-15
1.42125052293e+03
1.49119774519e+03
-3.56157357826e-15
1.40130004629e+03
1.49946150319e+03
1.23331097877e-15
1.38324876479e+03
1.50693858881e+03
5.57174421368e-15
1.36953298920e+03
1.51261984908e+03
8.86818478458e-15
1.35689390814e+03
1.51785512787e+03
1.19058532910e-14
1.34524700666e+03
1.52267943242e+03
1.47050620056e-14
1.33447013049e+03
1.52714336069e+03
1.72951694016e-14
1.32076403469e+03
1.53282061146e+03
2.05892835364e-14
1.30333253839e+03
1.54004097364e+03
2.47787580011e-14
1.26141807012e+03
1.55740251485e+03
3.48524539966e-14
1.35049190148e+03
1.38676982764e+03
0.00000000000e+00
1.36888437097e+03
1.41391404339e+03
0.00000000000e+00
1.38587121221e+03
1.43898378642e+03
0.00000000000e+00
1.39965561239e+03
1.45932726084e+03
0.00000000000e+00
1.41134230515e+03
1.47657486917e+03
0.00000000000e+00
1.42125052293e+03
1.49119774519e+03
0.00000000000e+00
1.42125052293e+03
1.49119774519e+03
0.00000000000e+00
1.42793393353e+03
1.50106134396e+03
0.00000000000e+00
1.43470544167e+03
1.51105495999e+03
0.00000000000e+00
1.43470544167e+03
1.51105495999e+03
0.00000000000e+00
1.44544778660e+03
1.52690886850e+03
0.00000000000e+00
1.45918158042e+03
1.54717765638e+03
0.00000000000e+00
1.47673985439e+03
1.57309073877e+03
0.00000000000e+00
1.49775706075e+03
1.60410862815e+03
0.00000000000e+00
1.51877426711e+03
1.63512651754e+03
0.00000000000e+00
1.35049190148e+03
1.38676982764e+03
0.00000000000e+00
1.36888437097e+03
1.41391404339e+03
0.00000000000e+00
1.38587121221e+03
1.43898378642e+03
0.00000000000e+00
1.39965561239e+03
1.45932726084e+03
0.00000000000e+00
1.41134230515e+03
1.47657486917e+03
0.00000000000e+00
1.42125052293e+03
1.49119774519e+03
0.00000000000e+00
1.42125052293e+03
1.49119774519e+03
0.00000000000e+00
1.42793393353e+03
1.50106134396e+03
0.00000000000e+00
1.43470544167e+03
1.51105495999e+03
0.00000000000e+00
1.43470544167e+03
1.51105495999e+03
0.00000000000e+00
1.44544778660e+03
1.52690886850e+03
0.00000000000e+00
1.45918158042e+03
1.54717765638e+03
0.00000000000e+00
1.47673985439e+03
1.57309073877e+03
0.00000000000e+00
1.49775706075e+03
1.60410862815e+03
0.00000000000e+00
1.51877426711e+03
1.63512651754e+03
0.00000000000e+00
1.35085784293e+03
1.53622518945e+03
0.00000000000e+00
1.36362541245e+03
1.53239248989e+03
0.00000000000e+00
1.37756419926e+03
1.52820820236e+03
0.00000000000e+00
1.39278164230e+03
1.52364007472e+03
0.00000000000e+00
1.40579827607e+03
1.51973260851e+03
0.00000000000e+00
1.41975046517e+03
1.51554429774e+03
0.00000000000e+00
1.43470544167e+03
1.51105495999e+03
0.00000000000e+00
1.43470544167e+03
1.51105495999e+03
0.00000000000e+00
1.44893214192e+03
1.50678424366e+03
0.00000000000e+00
1.46406634475e+03
1.50224110392e+03
0.00000000000e+00
1.47834301498e+03
1.49795538708e+03
0.00000000000e+00
1.49342724784e+03
1.49342724784e+03
0.00000000000e+00
1.49342724784e+03
1.49342724784e+03
0.00000000000e+00
1.51985841184e+03
1.48549287080e+03
0.00000000000e+00
1.54884647045e+03
1.47679093899e+03
0.00000000000e+00
1.56969205210e+03
1.47053329916e+03
0.00000000000e+00
1.59351857559e+03
1.46338080973e+03
0.00000000000e+00
1.63819068074e+03
1.44997068048e+03
0.00000000000e+00
1.35085784293e+03
1.53622518945e+03
0.00000000000e+00
1.36362541245e+03
1.53239248989e+03
0.00000000000e+00
1.37756419926e+03
1.52820820236e+03
0.00000000000e+00
1.39278164230e+03
1.52364007472e+03
0.00000000000e+00
1.40579827607e+03
1.51973260851e+03
0.00000000000e+00
1.41975046517e+03
1.51554429774e+03
0.00000000000e+00
1.43470544167e+03
1.51105495999e+03
0.00000000000e+00
1.43470544167e+03
1.51105495999e+03
0.00000000000e+00
1.44893214192e+03
1.50678424366e+03
0.00000000000e+00
1.46406634475e+03
1.50224110392e+03
0.00000000000e+00
1.47834301498e+03
1.49795538708e+03
0.00000000000e+00
1.49342724784e+03
1.49342724784e+03
0.00000000000e+00
1.49342724784e+03
1.49342724784e+03
0.00000000000e+00
1.51985841184e+03
1.48549287080e+03
0.00000000000e+00
1.54884647045e+03
1.47679093899e+03
0.00000000000e+00
1.56969205210e+03
1.47053329916e+03
0.00000000000e+00
1.59351857559e+03
1.46338080973e+03
0.00000000000e+00
1.63819068074e+03
1.44997068048e+03
0.00000000000e+00

</DataArray>
</Points>
<Cells>
<DataArray type="Int64" Name="connectivity" format="ascii">
0
1
1
2
2
3
3
4
5
6
6
7
8
9
9
10
10
11
11
12
12
13
14
15
15
16
16
17
17
18
19
20
20
21
22
23
23
24
24
25
25
26
26
27
28
29
29
30
30
31
31
32
33
34
34
35
35
36
37
38
38
39
39
40
40
41
41
42
42
43
43
44
44
45
45
46
47
48
48
49
49
50
50
51
52
53
53
54
54
55
56
57
57
58
58
59
59
60
60
61
61
62
62
63
63
64
64
65
66
67
67
68
68
69
69
70
70
71
72
73
73
74
75
76
76
77
77
78
78
79
79
80
81
82
82
83
83
84
84
85
85
86
87
88
88
89
90
91
91
92
92
93
93
94
94
95
96
97
97
98
98
99
99
100
100
101
101
102
103
104
104
105
105
106
106
107
108
109
109
110
110
111
111
112
112
113
114
115
115
116
116
117
117
118
118
119
119
120
121
122
122
123
123
124
124
125
126
127
127
128
128
129
129
130
130
131

</DataArray>
<DataArray type="Int64" Name="offsets" format="ascii">
2
4
6
8
10
12
14
16
18
20
22
24
26
28
30
32
34
36
38
40
42
44
46
48
50
52
54
56
58
60
62
64
66
68
70
72
74
76
78
80
82
84
86
88
90
92
94
96
98
100
102
104
106
108
110
112
114
116
118
120
122
124
126
128
130
132
134
136
138
140
142
144
146
148
150
152
154
156
158
160
162
164
166
168
170
172
174
176
178
180
182
184
186
188
190
192
194
196
198
200
202
204
206
208
210
212
214
216

</DataArray>
<DataArray type="Int64" Name="types" format="ascii">
3
3
3
3
3
3
3
3
3
3
3
3
3
3
3
3
3
3
3
3
3
3
3
3
3
3
3
3
3
3
3
3
3
3
3
3
3
3
3
3
3
3
3
3
3
3
3
3
3
3
3
3
3
3
3
3
3
3
3
3
3
3
3
3
3
3
3
3
3
3
3
3
3
3
3
3
3
3
3
3
3
3
3
3
3
3
3
3
3
3
3
3
3
3
3
3
3
3
3
3
3
3
3
3
3
3
3
3

</DataArray>
</Cells>
<PointData>
<DataArray type="Int64" Name="node_id" format="ascii">
0
1
2
3
4
5
6
7
8
9
10
11
12
13
14
15
16
17
18
19
20
21
22
23
24
25
26
27
0
1
2
3
4
5
6
7
8
9
10
11
12
13
14
15
16
17
18
19
20
21
22
23
24
25
26
27
28
29
30
31
32
33
34
35
36
37
0
1
2
3
4
5
6
7
8
9
10
11
12
13
14
15
16
17
18
19
20
21
22
23
24
25
26
27
28
29
0
1
2
3
4
5
6
7
8
9
10
11
12
13
14
15
16
17
18
19
20
21
22
23
24
25
26
27
28
29
30
31
32
33
34
35

</DataArray>
</PointData>
<CellData>
<DataArray type="Int64" Name="cell_id" format="ascii">
0
1
2
3
4
5
6
7
8
9
10
11
12
13
14
15
16
17
18
19
20
21
0
1
2
3
4
5
6
7
8
9
10
11
12
13
14
15
16
17
18
19
20
21
22
23
24
25
26
27
28
29
30
31
0
1
2
3
4
5
6
7
8
9
10
11
12
13
14
15
16
17
18
19
20
21
22
23
0
1
2
3
4
5
6
7
8
9
10
11
12
13
14
15
16
17
18
19
20
21
22
23
24
25
26
27
28
29

</DataArray>
<DataArray type="Int64" Name="grid_dim" format="ascii">
1
1
1
1
1
1
1
1
1
1
1
1
1
1
1
1
1
1
1
1
1
1
1
1
1
1
1
1
1
1
1
1
1
1
1
1
1
1
1
1
1
1
1
1
1
1
1
1
1
1
1
1
1
1
1
1
1
1
1
1
1
1
1
1
1
1
1
1
1
1
1
1
1
1
1
1
1
1
1
1
1
1
1
1
1
1
1
1
1
1
1
1
1
1
1
1
1
1
1
1
1
1
1
1
1
1
1
1

</DataArray>
<DataArray type="Float64" Name="interface_darcy_flux" format="ascii">
2.97046509133e-09
5.24340645094e-09
9.70401641207e-09
2.43385368357e-08
8.20964763449e-09
1.81396469563e-08
-8.94957652650e-08
-4.36994081793e-08
-3.29075451417e-08
-4.06704542999e-08
-7.37770616967e-08
-1.58653071512e-10
3.68639676751e-10
2.67297404044e-09
1.07824534994e-08
-8.28662637987e-09
1.89477576312e-09
-8.50490075962e-08
-3.91284777441e-08
-3.60144740825e-08
-4.76284128636e-08
-7.43111395522e-08
3.33155528165e-10
-3.08895527456e-09
-7.18310942519e-09
-1.92073334688e-08
-9.07413115859e-09
-4.93034020227e-09
-9.18580986031e-09
-1.23365266817e-09
-5.19866965261e-11
-5.22929344942e-11
-1.36962039620e-10
-2.26165461944e-10
-2.83446181056e-10
-4.88958776967e-10
-8.19694245190e-10
-1.90012316426e-09
1.43179738834e-08
1.19843018368e-08
8.31999634358e-09
-4.01935473834e-09
1.51329700292e-08
8.40330171516e-09
1.62847598351e-10
8.00794330361e-09
4.97839193483e-09
4.02836765418e-09
4.06186186276e-09
3.93132795335e-09
3.58363760527e-09
4.44796594131e-09
5.56224058530e-09
1.34147674776e-08
3.79712739622e-09
3.55992667217e-09
2.90003592507e-09
3.52038323810e-09
9.47341882975e-09
4.57774119202e-09
1.40704218138e-08
-1.67849158585e-08
6.58122248226e-09
2.38458672953e-08
3.05145723229e-08
2.01512793012e-08
-9.54067928215e-10
-9.04425501779e-11
4.50239526546e-10
8.20655354647e-10
1.46588630523e-09
-4.01021408488e-09
-3.83149010875e-10
-3.03210009600e-08
-9.52732405794e-09
-6.04210532688e-09
-5.94898425527e-09
-9.81588550514e-09
-4.85457096390e-09
-4.56146709293e-09
-4.49342820665e-09
-3.50255010885e-09
-3.05585942516e-09
-1.13341457325e-09
-1.77882160324e-08
-8.71922788673e-09
-5.26736209198e-09
-3.57394001865e-09
-2.89727137217e-08
-1.54161248915e-08
-9.12903020302e-09
-1.00969397990e-08
-2.84063206444e-08
3.93863762306e-09
5.49588246979e-09
7.07772157209e-09
7.63327566705e-09
1.14664630214e-08
2.92021143864e-08
1.78523881801e-08
1.50905475376e-08
2.38791140063e-08
6.50956919299e-08
1.03658527770e-07
3.59494353478e-08
1.38996877040e-08
1.00972242239e-08
-3.52445889437e-10

</DataArray>
<DataArray type="Int64" Name="interface_id" format="ascii">
0
0
0
0
0
0
0
0
0
0
0
0
0
0
0
0
0
0
0
0
0
0
1
1
1
1
1
1
1
1
1
1
1
1
1
1
1
1
1
1
1
1
1
1
1
1
1
1
1
1
1
1
1
1
2
2
2
2
2
2
2
2
2
2
2
2
2
2
2
2
2
2
2
2
2
2
2
2
3
3
3
3
3
3
3
3
3
3
3
3
3
3
3
3
3
3
3
3
3
3
3
3
3
3
3
3
3
3

</DataArray>
<DataArray type="Int64" Name="is_mortar" format="ascii">
1
1
1
1
1
1
1
1
1
1
1
1
1
1
1
1
1
1
1
1
1
1
1
1
1
1
1
1
1
1
1
1
1
1
1
1
1
1
1
1
1
1
1
1
1
1
1
1
1
1
1
1
1
1
1
1
1
1
1
1
1
1
1
1
1
1
1
1
1
1
1
1
1
1
1
1
1
1
1
1
1
1
1
1
1
1
1
1
1
1
1
1
1
1
1
1
1
1
1
1
1
1
1
1
1
1
1
1

</DataArray>
<DataArray type="Int64" Name="mortar_side" format="ascii">
1
1
1
1
1
1
1
1
1
1
1
2
2
2
2
2
2
2
2
2
2
2
1
1
1
1
1
1
1
1
1
1
1
1
1
1
1
1
2
2
2
2
2
2
2
2
2
2
2
2
2
2
2
2
1
1
1
1
1
1
1
1
1
1
1
1
2
2
2
2
2
2
2
2
2
2
2
2
1
1
1
1
1
1
1
1
1
1
1
1
1
1
1
2
2
2
2
2
2
2
2
2
2
2
2
2
2
2

</DataArray>
<DataArray type="Float64" Name="u_interface" NumberOfComponents="2" format="ascii">
4.50665905526e-04
-1.26641383584e-02
3.27385736423e-03
-1.57933176848e-02
5.70830429741e-03
-1.99228374582e-02
8.54309878399e-03
-2.45866190769e-02
1.33077853576e-02
-2.86815362554e-02
1.77475886320e-02
-3.34258349595e-02
4.91195466294e-02
-4.93853179965e-02
4.88548395880e-02
-5.48428988430e-02
4.29472521975e-02
-5.25641452989e-02
3.34747248089e-02
-4.33565418696e-02
2.05189685602e-02
-2.42564764787e-02
-6.49274532256e-03
-1.17028822745e-02
-1.00724600842e-02
-1.15039821030e-02
-1.38082272468e-02
-1.16939563059e-02
-1.66797142989e-02
-1.16625213133e-02
-1.90592715167e-02
-1.05318159455e-02
-2.02562080038e-02
-9.88956109851e-03
-5.90807132571e-02
4.59513762531e-02
-5.92421755688e-02
4.75864419780e-02
-5.76714123370e-02
4.61296091898e-02
-5.13079438399e-02
3.94962905367e-02
-3.48328424378e-02
2.89904597906e-02
9.08327825606e-03
-3.89793313705e-02
8.67569553314e-03
-3.84921187056e-02
8.66139722577e-03
-3.52338491646e-02
9.83276845811e-03
-2.96931019498e-02
-1.83494676030e-02
-1.18677616477e-02
-1.89854663634e-02
-1.27840047097e-02
-1.95949457870e-02
-1.35352968393e-02
-1.03513925766e-02
2.94336298002e-03
-1.01595952923e-02
2.40092975990e-03
-9.10305586209e-03
2.44226472305e-03
-8.64952634108e-03
2.61498387176e-03
-8.33630736418e-03
2.86028836629e-03
-8.10685080104e-03
3.21895382220e-03
-7.97107550373e-03
3.70953076314e-03
-7.88798132857e-03
4.55606416393e-03
-8.62571048552e-03
6.84688488464e-03
9.08327825606e-03
-3.89793313705e-02
8.67569553314e-03
-3.84921187056e-02
8.66139722577e-03
-3.52338491646e-02
9.83276845811e-03
-2.96931019498e-02
-1.83494676030e-02
-1.18677616477e-02
-1.89854663634e-02
-1.27840047097e-02
-1.95949457870e-02
-1.35352968393e-02
-2.83204025608e-02
1.25902080494e-02
-2.91873890243e-02
1.26161936117e-02
-3.05783318086e-02
1.43121537277e-02
-3.06512675523e-02
1.77078335840e-02
-2.94674341345e-02
2.14227897396e-02
-2.78830418408e-02
2.26546370971e-02
-2.71118631123e-02
2.18298882006e-02
-2.63445403873e-02
2.05571822126e-02
-2.30946184090e-02
1.85828622775e-02
-4.74662609751e-03
-9.78949949468e-03
-9.47678054265e-03
-1.26802480708e-02
-1.38307108975e-02
-1.34893232870e-02
-1.69048592789e-02
-1.36596463565e-02
-1.88639845774e-02
-1.36922750548e-02
-2.07380410811e-02
-1.40422381168e-02
-2.19077022179e-02
-1.38203593161e-02
-4.85590974867e-02
3.69225271493e-02
-4.91512465931e-02
3.97304867387e-02
-4.76561260893e-02
4.29239606543e-02
-4.20438540046e-02
4.47287297468e-02
-3.07514516346e-02
4.38589214725e-02
-4.61478428063e-03
1.03814124724e-03
-6.50421338815e-03
2.47175987352e-03
-7.63074281325e-03
2.66928917567e-03
-8.54506367574e-03
2.82090929163e-03
-9.81824610193e-03
3.04351632763e-03
-2.84932892765e-02
1.32802175129e-02
-2.90239408672e-02
1.35128379864e-02
-4.85590974867e-02
3.69225271493e-02
-4.91512465931e-02
3.97304867387e-02
-4.76561260893e-02
4.29239606543e-02
-4.20438540046e-02
4.47287297468e-02
-3.27592702404e-02
4.14533765220e-02
-2.68514127377e-02
2.00236307585e-02
-2.72412903855e-02
1.57754290607e-02
-2.84700320835e-02
1.29739232158e-02
-2.92219941856e-02
1.22280863389e-02
-2.94438733795e-02
1.25390358713e-02
-2.93762166627e-02
1.33031007560e-02
-2.19765717363e-02
-1.34687272456e-02
-2.15219183319e-02
-1.25658284495e-02
-2.12317605174e-02
-1.13648620097e-02
-2.08972585005e-02
-1.01135041274e-02
2.01054830011e-02
-4.45267561451e-02
1.32939239197e-02
-4.39589390514e-02
9.62398858572e-03
-3.97355966702e-02
9.01938028354e-03
-3.57973906233e-02
1.17201089248e-02
-2.83494281346e-02
-3.24345258207e-02
2.63733301557e-02
-3.48490231781e-02
2.82495240807e-02
-3.77351361475e-02
3.00457359097e-02
-4.06391089304e-02
3.16268852147e-02
-4.34617617517e-02
3.30558083728e-02
-4.64926300326e-02
3.45922724011e-02
-4.89797616120e-02
3.66922533601e-02
-5.19910783866e-02
3.83619274167e-02
-5.49508185458e-02
3.97457175786e-02
-5.73127188779e-02
4.14470384935e-02
4.32041446445e-02
-4.90081739111e-02
4.82056957918e-02
-5.07322420732e-02
5.21145051247e-02
-4.44047138944e-02
5.17122514803e-02
-3.46355319316e-02
4.54611500099e-02
-2.15087906604e-02

</DataArray>
</CellData>
</Piece>
</UnstructuredGrid>
</VTKFile>
