<?xml version="1.0"?>
<VTKFile type="UnstructuredGrid" version="0.1" byte_order="LittleEndian">
<!--This file was created by meshio v5.3.5-->
<UnstructuredGrid>
<Piece NumberOfPoints="66" NumberOfCells="54">
<Points>
<DataArray type="Float64" Name="Points" NumberOfComponents="3" format="ascii">
1.39393398282e+03
1.39393398282e+03
0.00000000000e+00
1.41179535368e+03
1.41179535368e+03
0.00000000000e+00
1.43232233047e+03
1.43232233047e+03
0.00000000000e+00
1.45342838492e+03
1.45342838492e+03
0.00000000000e+00
1.47071067812e+03
1.47071067812e+03
0.00000000000e+00
1.47071067812e+03
1.47071067812e+03
0.00000000000e+00
1.48193258519e+03
1.48193258519e+03
0.00000000000e+00
1.49342724784e+03
1.49342724784e+03
0.00000000000e+00
1.49342724784e+03
1.49342724784e+03
0.00000000000e+00
1.50904698282e+03
1.50904698282e+03
0.00000000000e+00
1.52763241449e+03
1.52763241449e+03
0.00000000000e+00
1.54974663251e+03
1.54974663251e+03
0.00000000000e+00
1.57790632484e+03
1.57790632484e+03
0.00000000000e+00
1.60606601718e+03
1.60606601718e+03
0.00000000000e+00
1.53858192988e+03
1.44259748515e+03
0.00000000000e+00
1.52114931535e+03
1.44981831051e+03
0.00000000000e+00
1.50464630400e+03
1.45665408163e+03
0.00000000000e+00
1.48715643064e+03
1.46389862438e+03
0.00000000000e+00
1.47071067812e+03
1.47071067812e+03
0.00000000000e+00
1.47071067812e+03
1.47071067812e+03
0.00000000000e+00
1.45304681743e+03
1.47802728878e+03
0.00000000000e+00
1.43658747974e+03
1.48484496968e+03
0.00000000000e+00
1.42125052293e+03
1.49119774519e+03
0.00000000000e+00
1.42125052293e+03
1.49119774519e+03
0.00000000000e+00
1.40130004629e+03
1.49946150319e+03
0.00000000000e+00
1.38324876479e+03
1.50693858881e+03
0.00000000000e+00
1.36953298920e+03
1.51261984908e+03
0.00000000000e+00
1.35689390814e+03
1.51785512787e+03
0.00000000000e+00
1.34524700666e+03
1.52267943242e+03
0.00000000000e+00
1.33447013049e+03
1.52714336069e+03
0.00000000000e+00
1.32076403469e+03
1.53282061146e+03
0.00000000000e+00
1.30333253839e+03
1.54004097364e+03
0.00000000000e+00
1.26141807012e+03
1.55740251485e+03
0.00000000000e+00
1.35049190148e+03
1.38676982764e+03
0.00000000000e+00
1.36888437097e+03
1.41391404339e+03
0.00000000000e+00
1.38587121221e+03
1.43898378642e+03
0.00000000000e+00
1.39965561239e+03
1.45932726084e+03
0.00000000000e+00
1.41134230515e+03
1.47657486917e+03
0.00000000000e+00
1.42125052293e+03
1.49119774519e+03
0.00000000000e+00
1.42125052293e+03
1.49119774519e+03
0.00000000000e+00
1.42793393353e+03
1.50106134396e+03
0.00000000000e+00
1.43470544167e+03
1.51105495999e+03
0.00000000000e+00
1.43470544167e+03
1.51105495999e+03
0.00000000000e+00
1.44544778660e+03
1.52690886850e+03
0.00000000000e+00
1.45918158042e+03
1.54717765638e+03
0.00000000000e+00
1.47673985439e+03
1.57309073877e+03
0.00000000000e+00
1.49775706075e+03
1.60410862815e+03
0.00000000000e+00
1.51877426711e+03
1.63512651754e+03
0.00000000000e+00
1.35085784293e+03
1.53622518945e+03
0.00000000000e+00
1.36362541245e+03
1.53239248989e+03
0.00000000000e+00
1.37756419926e+03
1.52820820236e+03
0.00000000000e+00
1.39278164230e+03
1.52364007472e+03
0.00000000000e+00
1.40579827607e+03
1.51973260851e+03
0.00000000000e+00
1.41975046517e+03
1.51554429774e+03
0.00000000000e+00
1.43470544167e+03
1.51105495999e+03
0.00000000000e+00
1.43470544167e+03
1.51105495999e+03
0.00000000000e+00
1.44893214192e+03
1.50678424366e+03
0.00000000000e+00
1.46406634475e+03
1.50224110392e+03
0.00000000000e+00
1.47834301498e+03
1.49795538708e+03
0.00000000000e+00
1.49342724784e+03
1.49342724784e+03
0.00000000000e+00
1.49342724784e+03
1.49342724784e+03
0.00000000000e+00
1.51985841184e+03
1.48549287080e+03
0.00000000000e+00
1.54884647045e+03
1.47679093899e+03
0.00000000000e+00
1.56969205210e+03
1.47053329916e+03
0.00000000000e+00
1.59351857559e+03
1.46338080973e+03
0.00000000000e+00
1.63819068074e+03
1.44997068048e+03
0.00000000000e+00

</DataArray>
</Points>
<Cells>
<DataArray type="Int64" Name="connectivity" format="ascii">
0
1
1
2
2
3
3
4
5
6
6
7
8
9
9
10
10
11
11
12
12
13
14
15
15
16
16
17
17
18
19
20
20
21
21
22
23
24
24
25
25
26
26
27
27
28
28
29
29
30
30
31
31
32
33
34
34
35
35
36
36
37
37
38
39
40
40
41
42
43
43
44
44
45
45
46
46
47
48
49
49
50
50
51
51
52
52
53
53
54
55
56
56
57
57
58
58
59
60
61
61
62
62
63
63
64
64
65

</DataArray>
<DataArray type="Int64" Name="offsets" format="ascii">
2
4
6
8
10
12
14
16
18
20
22
24
26
28
30
32
34
36
38
40
42
44
46
48
50
52
54
56
58
60
62
64
66
68
70
72
74
76
78
80
82
84
86
88
90
92
94
96
98
100
102
104
106
108

</DataArray>
<DataArray type="Int64" Name="types" format="ascii">
3
3
3
3
3
3
3
3
3
3
3
3
3
3
3
3
3
3
3
3
3
3
3
3
3
3
3
3
3
3
3
3
3
3
3
3
3
3
3
3
3
3
3
3
3
3
3
3
3
3
3
3
3
3

</DataArray>
</Cells>
<PointData>
<DataArray type="Int64" Name="node_id" format="ascii">
0
1
2
3
4
5
6
7
8
9
10
11
12
13
0
1
2
3
4
5
6
7
8
9
10
11
12
13
14
15
16
17
18
0
1
2
3
4
5
6
7
8
9
10
11
12
13
14
0
1
2
3
4
5
6
7
8
9
10
11
12
13
14
15
16
17

</DataArray>
</PointData>
<CellData>
<DataArray type="Float64" Name="aperture" format="ascii">
6.58944385933e-03
1.34702898483e-02
2.06189694645e-02
2.79739393409e-02
3.67207557107e-02
4.45154011630e-02
1.44922360492e-01
1.49864613930e-01
1.41935163066e-01
1.19536199564e-01
7.77909106211e-02
1.00000000000e-03
1.00000000000e-03
1.00000000000e-03
1.00000000000e-03
1.00000000000e-03
1.00000000000e-03
1.00000000000e-03
3.03608029591e-03
3.15605177616e-03
3.74811519442e-03
6.52427309166e-03
1.00629829688e-02
1.13882093119e-02
1.04161650580e-02
8.72008609225e-03
6.30561796054e-03
6.96452400330e-03
7.03852933965e-03
4.93135326530e-03
3.32391909031e-03
2.89922966345e-03
2.27465174644e-02
2.22235352592e-02
1.00000000000e-03
1.00000000000e-03
1.00000000000e-03
1.00000000000e-03
1.31281462658e-03
5.47636156505e-03
1.07600528826e-02
1.46871179543e-02
1.62971143497e-02
1.66201212906e-02
1.64690342426e-02
4.12791667378e-02
4.10170472566e-02
4.02577569399e-02
3.99134645880e-02
3.34901744599e-03
4.55035120493e-03
8.74469312609e-03
1.43876426552e-02
1.72528556959e-02

</DataArray>
<DataArray type="Int64" Name="cell_id" format="ascii">
0
1
2
3
4
5
6
7
8
9
10
0
1
2
3
4
5
6
7
8
9
10
11
12
13
14
15
0
1
2
3
4
5
6
7
8
9
10
11
0
1
2
3
4
5
6
7
8
9
10
11
12
13
14

</DataArray>
<DataArray type="Float64" Name="contact_traction" NumberOfComponents="2" format="ascii">
0.00000000000e+00
0.00000000000e+00
0.00000000000e+00
0.00000000000e+00
0.00000000000e+00
0.00000000000e+00
0.00000000000e+00
0.00000000000e+00
0.00000000000e+00
0.00000000000e+00
0.00000000000e+00
0.00000000000e+00
0.00000000000e+00
0.00000000000e+00
0.00000000000e+00
0.00000000000e+00
0.00000000000e+00
0.00000000000e+00
0.00000000000e+00
0.00000000000e+00
0.00000000000e+00
0.00000000000e+00
1.92946854906e+06
-3.36524919370e+06
1.49505238609e+06
-4.07108810257e+06
3.66132760366e+05
-3.24302308745e+06
-1.36049443737e+05
-4.47101347619e+05
-7.22860509442e+05
-1.02260289626e+06
-5.66131512991e+05
-1.32493198510e+06
-5.34156149429e+05
-1.38485831916e+06
-4.60543794830e+05
-4.60543794830e+05
-6.10437639408e+05
-6.10437639408e+05
0.00000000000e+00
0.00000000000e+00
0.00000000000e+00
0.00000000000e+00
0.00000000000e+00
0.00000000000e+00
0.00000000000e+00
0.00000000000e+00
0.00000000000e+00
0.00000000000e+00
0.00000000000e+00
0.00000000000e+00
0.00000000000e+00
0.00000000000e+00
0.00000000000e+00
0.00000000000e+00
0.00000000000e+00
0.00000000000e+00
0.00000000000e+00
0.00000000000e+00
0.00000000000e+00
0.00000000000e+00
3.85023857049e+05
-3.85023857049e+05
0.00000000000e+00
0.00000000000e+00
0.00000000000e+00
0.00000000000e+00
1.22652369847e+06
-3.78048991380e+06
1.10013115320e+06
-4.49945500180e+06
5.60243185305e+04
-4.92107976511e+06
-1.65241530613e+06
-4.14359008773e+06
-2.01096258569e+06
-2.01096258569e+06
0.00000000000e+00
0.00000000000e+00
0.00000000000e+00
0.00000000000e+00
0.00000000000e+00
0.00000000000e+00
0.00000000000e+00
0.00000000000e+00
0.00000000000e+00
0.00000000000e+00
0.00000000000e+00
0.00000000000e+00
0.00000000000e+00
0.00000000000e+00
0.00000000000e+00
0.00000000000e+00
0.00000000000e+00
0.00000000000e+00
0.00000000000e+00
0.00000000000e+00
4.30629734812e+06
-4.30629734812e+06
1.40456760764e+06
-1.40456760764e+06
0.00000000000e+00
0.00000000000e+00
0.00000000000e+00
0.00000000000e+00
0.00000000000e+00
0.00000000000e+00

</DataArray>
<DataArray type="Int64" Name="grid_dim" format="ascii">
1
1
1
1
1
1
1
1
1
1
1
1
1
1
1
1
1
1
1
1
1
1
1
1
1
1
1
1
1
1
1
1
1
1
1
1
1
1
1
1
1
1
1
1
1
1
1
1
1
1
1
1
1
1

</DataArray>
<DataArray type="Int64" Name="is_mortar" format="ascii">
0
0
0
0
0
0
0
0
0
0
0
0
0
0
0
0
0
0
0
0
0
0
0
0
0
0
0
0
0
0
0
0
0
0
0
0
0
0
0
0
0
0
0
0
0
0
0
0
0
0
0
0
0
0

</DataArray>
<DataArray type="Int64" Name="mortar_side" format="ascii">
0
0
0
0
0
0
0
0
0
0
0
0
0
0
0
0
0
0
0
0
0
0
0
0
0
0
0
0
0
0
0
0
0
0
0
0
0
0
0
0
0
0
0
0
0
0
0
0
0
0
0
0
0
0

</DataArray>
<DataArray type="Float64" Name="pressure" format="ascii">
-2.16227710680e+05
-2.16224950530e+05
-2.16223306171e+05
-2.16222325285e+05
1.62137556113e+06
1.62137575515e+06
1.00000000000e+07
9.99999988912e+06
9.99999978339e+06
9.99999965154e+06
9.99999945253e+06
2.06811292605e+06
2.06488387176e+06
2.05968558126e+06
2.05424549051e+06
4.47613114862e+05
4.46166193371e+05
4.44100756581e+05
-3.21470722342e+05
-3.21535741772e+05
-3.21592736636e+05
-3.21617324394e+05
-3.21621899251e+05
-3.21623131981e+05
-3.21624032133e+05
-3.21624988079e+05
-3.21626246765e+05
-4.22450172831e+05
-4.22442076504e+05
-4.22418700850e+05
-4.22349271445e+05
-4.22247475676e+05
1.82508733442e+05
1.82508976158e+05
3.10008223544e+06
3.11294804365e+06
3.13038279738e+06
3.14452906464e+06
3.14767914897e+06
1.90251090644e+05
1.90253331665e+05
1.90254381721e+05
1.90255321757e+05
1.90256302585e+05
1.90257475575e+05
1.78819305354e+06
1.78819321619e+06
1.78819345792e+06
1.78819374324e+06
4.13184554732e+06
4.13137331259e+06
4.13118335470e+06
4.13116237094e+06
4.13115523706e+06

</DataArray>
<DataArray type="Float64" Name="specific_volume" format="ascii">
6.58944385933e-03
1.34702898483e-02
2.06189694645e-02
2.79739393409e-02
3.67207557107e-02
4.45154011630e-02
1.44922360492e-01
1.49864613930e-01
1.41935163066e-01
1.19536199564e-01
7.77909106211e-02
1.00000000000e-03
1.00000000000e-03
1.00000000000e-03
1.00000000000e-03
1.00000000000e-03
1.00000000000e-03
1.00000000000e-03
3.03608029591e-03
3.15605177616e-03
3.74811519442e-03
6.52427309166e-03
1.00629829688e-02
1.13882093119e-02
1.04161650580e-02
8.72008609225e-03
6.30561796054e-03
6.96452400330e-03
7.03852933965e-03
4.93135326530e-03
3.32391909031e-03
2.89922966345e-03
2.27465174644e-02
2.22235352592e-02
1.00000000000e-03
1.00000000000e-03
1.00000000000e-03
1.00000000000e-03
1.31281462658e-03
5.47636156505e-03
1.07600528826e-02
1.46871179543e-02
1.62971143497e-02
1.66201212906e-02
1.64690342426e-02
4.12791667378e-02
4.10170472566e-02
4.02577569399e-02
3.99134645880e-02
3.34901744599e-03
4.55035120493e-03
8.74469312609e-03
1.43876426552e-02
1.72528556959e-02

</DataArray>
<DataArray type="Int64" Name="states" format="ascii">
2
2
2
2
2
2
2
2
2
2
2
0
0
0
0
0
0
0
1
1
2
2
2
2
2
2
2
2
2
2
2
1
2
2
0
0
0
0
1
2
2
2
2
2
2
2
2
2
2
1
1
2
2
2

</DataArray>
<DataArray type="Int64" Name="subdomain_id" format="ascii">
1
1
1
1
1
1
1
1
1
1
1
2
2
2
2
2
2
2
2
2
2
2
2
2
2
2
2
3
3
3
3
3
3
3
3
3
3
3
3
4
4
4
4
4
4
4
4
4
4
4
4
4
4
4

</DataArray>
</CellData>
</Piece>
</UnstructuredGrid>
</VTKFile>
