<?xml version="1.0"?>
<VTKFile type="UnstructuredGrid" version="0.1" byte_order="LittleEndian">
<!--This file was created by meshio v5.3.5-->
<UnstructuredGrid>
<Piece NumberOfPoints="132" NumberOfCells="108">
<Points>
<DataArray type="Float64" Name="Points" NumberOfComponents="3" format="ascii">
1.39393398282e+03
1.39393398282e+03
0.00000000000e+00
1.41179535368e+03
1.41179535368e+03
0.00000000000e+00
1.43232233047e+03
1.43232233047e+03
0.00000000000e+00
1.45342838492e+03
1.45342838492e+03
0.00000000000e+00
1.47071067812e+03
1.47071067812e+03
0.00000000000e+00
1.47071067812e+03
1.47071067812e+03
0.00000000000e+00
1.48193258519e+03
1.48193258519e+03
0.00000000000e+00
1.49342724784e+03
1.49342724784e+03
0.00000000000e+00
1.49342724784e+03
1.49342724784e+03
0.00000000000e+00
1.50904698282e+03
1.50904698282e+03
0.00000000000e+00
1.52763241449e+03
1.52763241449e+03
0.00000000000e+00
1.54974663251e+03
1.54974663251e+03
0.00000000000e+00
1.57790632484e+03
1.57790632484e+03
0.00000000000e+00
1.60606601718e+03
1.60606601718e+03
0.00000000000e+00
1.39393398282e+03
1.39393398282e+03
0.00000000000e+00
1.41179535368e+03
1.41179535368e+03
0.00000000000e+00
1.43232233047e+03
1.43232233047e+03
0.00000000000e+00
1.45342838492e+03
1.45342838492e+03
0.00000000000e+00
1.47071067812e+03
1.47071067812e+03
0.00000000000e+00
1.47071067812e+03
1.47071067812e+03
0.00000000000e+00
1.48193258519e+03
1.48193258519e+03
0.00000000000e+00
1.49342724784e+03
1.49342724784e+03
0.00000000000e+00
1.49342724784e+03
1.49342724784e+03
0.00000000000e+00
1.50904698282e+03
1.50904698282e+03
0.00000000000e+00
1.52763241449e+03
1.52763241449e+03
0.00000000000e+00
1.54974663251e+03
1.54974663251e+03
0.00000000000e+00
1.57790632484e+03
1.57790632484e+03
0.00000000000e+00
1.60606601718e+03
1.60606601718e+03
0.00000000000e+00
1.53858192988e+03
1.44259748515e+03
0.00000000000e+00
1.52114931535e+03
1.44981831051e+03
0.00000000000e+00
1.50464630400e+03
1.45665408163e+03
0.00000000000e+00
1.48715643064e+03
1.46389862438e+03
0.00000000000e+00
1.47071067812e+03
1.47071067812e+03
0.00000000000e+00
1.47071067812e+03
1.47071067812e+03
0.00000000000e+00
1.45304681743e+03
1.47802728878e+03
0.00000000000e+00
1.43658747974e+03
1.48484496968e+03
0.00000000000e+00
1.42125052293e+03
1.49119774519e+03
0.00000000000e+00
1.42125052293e+03
1.49119774519e+03
0.00000000000e+00
1.40130004629e+03
1.49946150319e+03
0.00000000000e+00
1.38324876479e+03
1.50693858881e+03
0.00000000000e+00
1.36953298920e+03
1.51261984908e+03
0.00000000000e+00
1.35689390814e+03
1.51785512787e+03
0.00000000000e+00
1.34524700666e+03
1.52267943242e+03
0.00000000000e+00
1.33447013049e+03
1.52714336069e+03
0.00000000000e+00
1.32076403469e+03
1.53282061146e+03
0.00000000000e+00
1.30333253839e+03
1.54004097364e+03
0.00000000000e+00
1.26141807012e+03
1.55740251485e+03
0.00000000000e+00
1.53858192988e+03
1.44259748515e+03
0.00000000000e+00
1.52114931535e+03
1.44981831051e+03
0.00000000000e+00
1.50464630400e+03
1.45665408163e+03
0.00000000000e+00
1.48715643064e+03
1.46389862438e+03
0.00000000000e+00
1.47071067812e+03
1.47071067812e+03
0.00000000000e+00
1.47071067812e+03
1.47071067812e+03
0.00000000000e+00
1.45304681743e+03
1.47802728878e+03
0.00000000000e+00
1.43658747974e+03
1.48484496968e+03
0.00000000000e+00
1.42125052293e+03
1.49119774519e+03
0.00000000000e+00
1.42125052293e+03
1.49119774519e+03
0.00000000000e+00
1.40130004629e+03
1.49946150319e+03
0.00000000000e+00
1.38324876479e+03
1.50693858881e+03
0.00000000000e+00
1.36953298920e+03
1.51261984908e+03
0.00000000000e+00
1.35689390814e+03
1.51785512787e+03
0.00000000000e+00
1.34524700666e+03
1.52267943242e+03
0.00000000000e+00
1.33447013049e+03
1.52714336069e+03
0.00000000000e+00
1.32076403469e+03
1.53282061146e+03
0.00000000000e+00
1.30333253839e+03
1.54004097364e+03
0.00000000000e+00
1.26141807012e+03
1.55740251485e+03
0.00000000000e+00
1.35049190148e+03
1.38676982764e+03
0.00000000000e+00
1.36888437097e+03
1.41391404339e+03
0.00000000000e+00
1.38587121221e+03
1.43898378642e+03
0.00000000000e+00
1.39965561239e+03
1.45932726084e+03
0.00000000000e+00
1.41134230515e+03
1.47657486917e+03
0.00000000000e+00
1.42125052293e+03
1.49119774519e+03
0.00000000000e+00
1.42125052293e+03
1.49119774519e+03
0.00000000000e+00
1.42793393353e+03
1.50106134396e+03
0.00000000000e+00
1.43470544167e+03
1.51105495999e+03
0.00000000000e+00
1.43470544167e+03
1.51105495999e+03
0.00000000000e+00
1.44544778660e+03
1.52690886850e+03
0.00000000000e+00
1.45918158042e+03
1.54717765638e+03
0.00000000000e+00
1.47673985439e+03
1.57309073877e+03
0.00000000000e+00
1.49775706075e+03
1.60410862815e+03
0.00000000000e+00
1.51877426711e+03
1.63512651754e+03
0.00000000000e+00
1.35049190148e+03
1.38676982764e+03
0.00000000000e+00
1.36888437097e+03
1.41391404339e+03
0.00000000000e+00
1.38587121221e+03
1.43898378642e+03
0.00000000000e+00
1.39965561239e+03
1.45932726084e+03
0.00000000000e+00
1.41134230515e+03
1.47657486917e+03
0.00000000000e+00
1.42125052293e+03
1.49119774519e+03
0.00000000000e+00
1.42125052293e+03
1.49119774519e+03
0.00000000000e+00
1.42793393353e+03
1.50106134396e+03
0.00000000000e+00
1.43470544167e+03
1.51105495999e+03
0.00000000000e+00
1.43470544167e+03
1.51105495999e+03
0.00000000000e+00
1.44544778660e+03
1.52690886850e+03
0.00000000000e+00
1.45918158042e+03
1.54717765638e+03
0.00000000000e+00
1.47673985439e+03
1.57309073877e+03
0.00000000000e+00
1.49775706075e+03
1.60410862815e+03
0.00000000000e+00
1.51877426711e+03
1.63512651754e+03
0.00000000000e+00
1.35085784293e+03
1.53622518945e+03
0.00000000000e+00
1.36362541245e+03
1.53239248989e+03
0.00000000000e+00
1.37756419926e+03
1.52820820236e+03
0.00000000000e+00
1.39278164230e+03
1.52364007472e+03
0.00000000000e+00
1.40579827607e+03
1.51973260851e+03
0.00000000000e+00
1.41975046517e+03
1.51554429774e+03
0.00000000000e+00
1.43470544167e+03
1.51105495999e+03
0.00000000000e+00
1.43470544167e+03
1.51105495999e+03
0.00000000000e+00
1.44893214192e+03
1.50678424366e+03
0.00000000000e+00
1.46406634475e+03
1.50224110392e+03
0.00000000000e+00
1.47834301498e+03
1.49795538708e+03
0.00000000000e+00
1.49342724784e+03
1.49342724784e+03
0.00000000000e+00
1.49342724784e+03
1.49342724784e+03
0.00000000000e+00
1.51985841184e+03
1.48549287080e+03
0.00000000000e+00
1.54884647045e+03
1.47679093899e+03
0.00000000000e+00
1.56969205210e+03
1.47053329916e+03
0.00000000000e+00
1.59351857559e+03
1.46338080973e+03
0.00000000000e+00
1.63819068074e+03
1.44997068048e+03
0.00000000000e+00
1.35085784293e+03
1.53622518945e+03
0.00000000000e+00
1.36362541245e+03
1.53239248989e+03
0.00000000000e+00
1.37756419926e+03
1.52820820236e+03
0.00000000000e+00
1.39278164230e+03
1.52364007472e+03
0.00000000000e+00
1.40579827607e+03
1.51973260851e+03
0.00000000000e+00
1.41975046517e+03
1.51554429774e+03
0.00000000000e+00
1.43470544167e+03
1.51105495999e+03
0.00000000000e+00
1.43470544167e+03
1.51105495999e+03
0.00000000000e+00
1.44893214192e+03
1.50678424366e+03
0.00000000000e+00
1.46406634475e+03
1.50224110392e+03
0.00000000000e+00
1.47834301498e+03
1.49795538708e+03
0.00000000000e+00
1.49342724784e+03
1.49342724784e+03
0.00000000000e+00
1.49342724784e+03
1.49342724784e+03
0.00000000000e+00
1.51985841184e+03
1.48549287080e+03
0.00000000000e+00
1.54884647045e+03
1.47679093899e+03
0.00000000000e+00
1.56969205210e+03
1.47053329916e+03
0.00000000000e+00
1.59351857559e+03
1.46338080973e+03
0.00000000000e+00
1.63819068074e+03
1.44997068048e+03
0.00000000000e+00

</DataArray>
</Points>
<Cells>
<DataArray type="Int64" Name="connectivity" format="ascii">
0
1
1
2
2
3
3
4
5
6
6
7
8
9
9
10
10
11
11
12
12
13
14
15
15
16
16
17
17
18
19
20
20
21
22
23
23
24
24
25
25
26
26
27
28
29
29
30
30
31
31
32
33
34
34
35
35
36
37
38
38
39
39
40
40
41
41
42
42
43
43
44
44
45
45
46
47
48
48
49
49
50
50
51
52
53
53
54
54
55
56
57
57
58
58
59
59
60
60
61
61
62
62
63
63
64
64
65
66
67
67
68
68
69
69
70
70
71
72
73
73
74
75
76
76
77
77
78
78
79
79
80
81
82
82
83
83
84
84
85
85
86
87
88
88
89
90
91
91
92
92
93
93
94
94
95
96
97
97
98
98
99
99
100
100
101
101
102
103
104
104
105
105
106
106
107
108
109
109
110
110
111
111
112
112
113
114
115
115
116
116
117
117
118
118
119
119
120
121
122
122
123
123
124
124
125
126
127
127
128
128
129
129
130
130
131

</DataArray>
<DataArray type="Int64" Name="offsets" format="ascii">
2
4
6
8
10
12
14
16
18
20
22
24
26
28
30
32
34
36
38
40
42
44
46
48
50
52
54
56
58
60
62
64
66
68
70
72
74
76
78
80
82
84
86
88
90
92
94
96
98
100
102
104
106
108
110
112
114
116
118
120
122
124
126
128
130
132
134
136
138
140
142
144
146
148
150
152
154
156
158
160
162
164
166
168
170
172
174
176
178
180
182
184
186
188
190
192
194
196
198
200
202
204
206
208
210
212
214
216

</DataArray>
<DataArray type="Int64" Name="types" format="ascii">
3
3
3
3
3
3
3
3
3
3
3
3
3
3
3
3
3
3
3
3
3
3
3
3
3
3
3
3
3
3
3
3
3
3
3
3
3
3
3
3
3
3
3
3
3
3
3
3
3
3
3
3
3
3
3
3
3
3
3
3
3
3
3
3
3
3
3
3
3
3
3
3
3
3
3
3
3
3
3
3
3
3
3
3
3
3
3
3
3
3
3
3
3
3
3
3
3
3
3
3
3
3
3
3
3
3
3
3

</DataArray>
</Cells>
<PointData>
<DataArray type="Int64" Name="node_id" format="ascii">
0
1
2
3
4
5
6
7
8
9
10
11
12
13
14
15
16
17
18
19
20
21
22
23
24
25
26
27
0
1
2
3
4
5
6
7
8
9
10
11
12
13
14
15
16
17
18
19
20
21
22
23
24
25
26
27
28
29
30
31
32
33
34
35
36
37
0
1
2
3
4
5
6
7
8
9
10
11
12
13
14
15
16
17
18
19
20
21
22
23
24
25
26
27
28
29
0
1
2
3
4
5
6
7
8
9
10
11
12
13
14
15
16
17
18
19
20
21
22
23
24
25
26
27
28
29
30
31
32
33
34
35

</DataArray>
</PointData>
<CellData>
<DataArray type="Int64" Name="cell_id" format="ascii">
0
1
2
3
4
5
6
7
8
9
10
11
12
13
14
15
16
17
18
19
20
21
0
1
2
3
4
5
6
7
8
9
10
11
12
13
14
15
16
17
18
19
20
21
22
23
24
25
26
27
28
29
30
31
0
1
2
3
4
5
6
7
8
9
10
11
12
13
14
15
16
17
18
19
20
21
22
23
0
1
2
3
4
5
6
7
8
9
10
11
12
13
14
15
16
17
18
19
20
21
22
23
24
25
26
27
28
29

</DataArray>
<DataArray type="Int64" Name="grid_dim" format="ascii">
1
1
1
1
1
1
1
1
1
1
1
1
1
1
1
1
1
1
1
1
1
1
1
1
1
1
1
1
1
1
1
1
1
1
1
1
1
1
1
1
1
1
1
1
1
1
1
1
1
1
1
1
1
1
1
1
1
1
1
1
1
1
1
1
1
1
1
1
1
1
1
1
1
1
1
1
1
1
1
1
1
1
1
1
1
1
1
1
1
1
1
1
1
1
1
1
1
1
1
1
1
1
1
1
1
1
1
1

</DataArray>
<DataArray type="Float64" Name="interface_darcy_flux" format="ascii">
4.07319346582e-11
5.94158921966e-11
1.00287224020e-10
2.33154171923e-10
5.75434123622e-11
1.84271212989e-10
-9.01132968599e-10
-4.38935255658e-10
-3.30975292123e-10
-4.10729050607e-10
-7.48643760452e-10
1.08192459753e-11
1.34825697201e-11
3.51993794089e-11
1.17340771922e-10
-8.32209731132e-11
1.50173863747e-11
-8.79006964769e-10
-4.06748946451e-10
-3.74989433236e-10
-4.92647578442e-10
-7.60658387125e-10
2.18468401495e-11
-2.02083072047e-11
-6.10311114057e-11
-1.77546374192e-10
-9.78432866983e-11
-5.04494926849e-11
-8.72235458902e-11
-1.79444983768e-11
-2.47998961238e-12
-1.54162659019e-12
-2.13437237879e-12
-2.83001015183e-12
-3.29460181951e-12
-5.43531849136e-12
-8.83373184590e-12
-1.86822915012e-11
1.68193109439e-10
1.40057515899e-10
1.04876277483e-10
-8.50949222692e-12
1.49270088099e-10
8.23853455967e-11
4.14091280254e-12
7.34136782391e-11
4.73770192945e-11
3.81508610709e-11
3.85985804235e-11
3.79333491740e-11
3.57423045036e-11
4.55732117848e-11
5.79702828012e-11
1.43903697959e-10
4.13593777356e-11
3.20702373865e-11
2.51419549739e-11
3.16815830835e-11
8.83180273638e-11
4.23505440603e-11
1.34587634063e-10
-1.34951661680e-10
8.61992138223e-11
2.60314129704e-10
3.28751921624e-10
2.25316723346e-10
-5.02583434713e-12
1.03033973390e-12
5.83084140877e-12
9.65685183707e-12
1.85816516773e-11
-3.41468051964e-11
1.50750513107e-12
-2.65389702549e-10
-7.46328851434e-11
-3.94607125392e-11
-3.72450443962e-11
-7.19295364707e-11
-4.60601326539e-11
-4.36735174804e-11
-4.29560466891e-11
-3.35151821495e-11
-2.99670067929e-11
-1.65136479115e-11
-1.71125303018e-10
-8.41902022189e-11
-5.04230073938e-11
-3.21013885879e-11
-3.21045252905e-10
-1.75288641886e-10
-9.88329454792e-11
-1.04934402729e-10
-2.87093221289e-10
4.28836701416e-11
5.71073758201e-11
7.16104379485e-11
7.50219250446e-11
1.08698967285e-10
2.64477323915e-10
1.54385426193e-10
1.43442162885e-10
2.39500728605e-10
6.64985219445e-10
1.03971974933e-09
3.58819205950e-10
1.39382994099e-10
1.03288947430e-10
5.98829239562e-12

</DataArray>
<DataArray type="Int64" Name="interface_id" format="ascii">
0
0
0
0
0
0
0
0
0
0
0
0
0
0
0
0
0
0
0
0
0
0
1
1
1
1
1
1
1
1
1
1
1
1
1
1
1
1
1
1
1
1
1
1
1
1
1
1
1
1
1
1
1
1
2
2
2
2
2
2
2
2
2
2
2
2
2
2
2
2
2
2
2
2
2
2
2
2
3
3
3
3
3
3
3
3
3
3
3
3
3
3
3
3
3
3
3
3
3
3
3
3
3
3
3
3
3
3

</DataArray>
<DataArray type="Int64" Name="is_mortar" format="ascii">
1
1
1
1
1
1
1
1
1
1
1
1
1
1
1
1
1
1
1
1
1
1
1
1
1
1
1
1
1
1
1
1
1
1
1
1
1
1
1
1
1
1
1
1
1
1
1
1
1
1
1
1
1
1
1
1
1
1
1
1
1
1
1
1
1
1
1
1
1
1
1
1
1
1
1
1
1
1
1
1
1
1
1
1
1
1
1
1
1
1
1
1
1
1
1
1
1
1
1
1
1
1
1
1
1
1
1
1

</DataArray>
<DataArray type="Int64" Name="mortar_side" format="ascii">
1
1
1
1
1
1
1
1
1
1
1
2
2
2
2
2
2
2
2
2
2
2
1
1
1
1
1
1
1
1
1
1
1
1
1
1
1
1
2
2
2
2
2
2
2
2
2
2
2
2
2
2
2
2
1
1
1
1
1
1
1
1
1
1
1
1
2
2
2
2
2
2
2
2
2
2
2
2
1
1
1
1
1
1
1
1
1
1
1
1
1
1
1
2
2
2
2
2
2
2
2
2
2
2
2
2
2
2

</DataArray>
<DataArray type="Float64" Name="u_interface" NumberOfComponents="2" format="ascii">
1.27915275703e-06
-1.20998502368e-04
2.66768104426e-05
-1.51019118962e-04
5.03018554913e-05
-1.91426841037e-04
7.86294310727e-05
-2.38575622238e-04
1.26239585046e-04
-2.80763479847e-04
1.70167356258e-04
-3.28838485007e-04
4.86509077542e-04
-4.89649056375e-04
4.84292465506e-04
-5.44314403654e-04
4.25714260349e-04
-5.22336327612e-04
3.31367007365e-04
-4.31322460953e-04
2.02348486029e-04
-2.42179431989e-04
-5.94904547033e-05
-1.21483578682e-04
-8.94125106193e-05
-1.24720460386e-04
-1.22857197044e-04
-1.27138153556e-04
-1.51235306706e-04
-1.25454795781e-04
-1.75394737071e-04
-1.12732290782e-04
-1.87934983390e-04
-1.05249142079e-04
-5.90297516253e-04
4.50706994960e-04
-5.91495585213e-04
4.67375788597e-04
-5.75310996692e-04
4.53134769823e-04
-5.11849086149e-04
3.87987495631e-04
-3.48567832577e-04
2.84167913569e-04
8.42869949338e-05
-3.84242646960e-04
7.99914740413e-05
-3.79397377409e-04
7.96857114337e-05
-3.46602837631e-04
9.13896443202e-05
-2.90772595691e-04
-1.68339073095e-04
-1.27225832809e-04
-1.75285073195e-04
-1.36742263034e-04
-1.82460524973e-04
-1.44360557516e-04
-8.83746580280e-05
2.63619943504e-05
-8.78276539425e-05
2.12173263814e-05
-7.82378137153e-05
2.22920144635e-05
-7.43972977824e-05
2.45846431191e-05
-7.19082596272e-05
2.74863007555e-05
-7.02140414222e-05
3.13881338297e-05
-6.95215484322e-05
3.65313225104e-05
-6.95969233397e-05
4.50535741232e-05
-7.85091080946e-05
6.71682971328e-05
8.42869949338e-05
-3.84242646960e-04
7.99914740413e-05
-3.79397377409e-04
7.96857114337e-05
-3.46602837631e-04
9.13896443202e-05
-2.90772595691e-04
-1.68339073103e-04
-1.27225832804e-04
-1.75285073195e-04
-1.36742263034e-04
-1.82460524973e-04
-1.44360557516e-04
-2.73208265631e-04
1.25591789298e-04
-2.81817254810e-04
1.25362609081e-04
-2.95826075352e-04
1.40571911086e-04
-2.97270092488e-04
1.71947060513e-04
-2.86800436220e-04
2.06363503406e-04
-2.72565904012e-04
2.17195387556e-04
-2.65810703040e-04
2.08741957311e-04
-2.58739975406e-04
1.96391414512e-04
-2.26327171901e-04
1.78111371110e-04
-4.46883633068e-05
-9.34458489305e-05
-8.45294768551e-05
-1.25281293996e-04
-1.23028629277e-04
-1.39354931434e-04
-1.53394926484e-04
-1.45191382499e-04
-1.76253776487e-04
-1.47222467364e-04
-1.93391645049e-04
-1.49264719654e-04
-2.05019350038e-04
-1.47067885151e-04
-4.81983484143e-04
3.60239082441e-04
-4.88143081444e-04
3.88051597307e-04
-4.73418243734e-04
4.19876333482e-04
-4.17353040018e-04
4.37429765264e-04
-3.09358312407e-04
4.24710510648e-04
-3.95776863694e-05
9.59335254997e-06
-5.60502124587e-05
2.26230061049e-05
-6.54721489956e-05
2.40426706982e-05
-7.24449077506e-05
2.51514109221e-05
-8.15719673025e-05
2.79511804846e-05
-2.74789406714e-04
1.32274796702e-04
-2.80045377207e-04
1.34437488547e-04
-4.81983484143e-04
3.60239082441e-04
-4.88143081444e-04
3.88051597307e-04
-4.73418243734e-04
4.19876333482e-04
-4.17353040018e-04
4.37429765264e-04
-3.22013630321e-04
4.09548316206e-04
-2.63151586417e-04
1.93502028792e-04
-2.66022135791e-04
1.54073895336e-04
-2.76831758457e-04
1.28362865890e-04
-2.83163781122e-04
1.21929985620e-04
-2.84621113045e-04
1.25177597292e-04
-2.83511069800e-04
1.32455809927e-04
-2.05789161189e-04
-1.43277738376e-04
-2.01349893076e-04
-1.33866843748e-04
-1.98466238173e-04
-1.21124739859e-04
-1.94948202766e-04
-1.07550315668e-04
1.93892860667e-04
-4.40696033373e-04
1.26214007955e-04
-4.35542607732e-04
8.96816119470e-05
-3.92363686581e-04
8.43011255777e-05
-3.52487793126e-04
1.12090417924e-04
-2.78415355259e-04
-3.19192360843e-04
2.54218594690e-04
-3.43525679143e-04
2.72711503293e-04
-3.72359438402e-04
2.90630375702e-04
-4.01443618981e-04
3.06630996138e-04
-4.29844468453e-04
3.21226119941e-04
-4.60635229891e-04
3.36965997721e-04
-4.86936205805e-04
3.57875404170e-04
-5.18126326029e-04
3.74208238097e-04
-5.48440586551e-04
3.87843392019e-04
-5.72512744622e-04
4.04887195084e-04
4.27286762461e-04
-4.85977253303e-04
4.76353592383e-04
-5.03473892169e-04
5.15240621676e-04
-4.41873509656e-04
5.11219076307e-04
-3.45268193804e-04
4.48782314240e-04
-2.14786906027e-04

</DataArray>
</CellData>
</Piece>
</UnstructuredGrid>
</VTKFile>
