<?xml version="1.0"?>
<VTKFile type="UnstructuredGrid" version="0.1" byte_order="LittleEndian">
<!--This file was created by meshio v5.3.5-->
<UnstructuredGrid>
<Piece NumberOfPoints="132" NumberOfCells="108">
<Points>
<DataArray type="Float64" Name="Points" NumberOfComponents="3" format="ascii">
1.39393398282e+03
1.39393398282e+03
0.00000000000e+00
1.41179535368e+03
1.41179535368e+03
0.00000000000e+00
1.43232233047e+03
1.43232233047e+03
0.00000000000e+00
1.45342838492e+03
1.45342838492e+03
0.00000000000e+00
1.47071067812e+03
1.47071067812e+03
0.00000000000e+00
1.47071067812e+03
1.47071067812e+03
0.00000000000e+00
1.48193258519e+03
1.48193258519e+03
0.00000000000e+00
1.49342724784e+03
1.49342724784e+03
0.00000000000e+00
1.49342724784e+03
1.49342724784e+03
0.00000000000e+00
1.50904698282e+03
1.50904698282e+03
0.00000000000e+00
1.52763241449e+03
1.52763241449e+03
0.00000000000e+00
1.54974663251e+03
1.54974663251e+03
0.00000000000e+00
1.57790632484e+03
1.57790632484e+03
0.00000000000e+00
1.60606601718e+03
1.60606601718e+03
0.00000000000e+00
1.39393398282e+03
1.39393398282e+03
0.00000000000e+00
1.41179535368e+03
1.41179535368e+03
0.00000000000e+00
1.43232233047e+03
1.43232233047e+03
0.00000000000e+00
1.45342838492e+03
1.45342838492e+03
0.00000000000e+00
1.47071067812e+03
1.47071067812e+03
0.00000000000e+00
1.47071067812e+03
1.47071067812e+03
0.00000000000e+00
1.48193258519e+03
1.48193258519e+03
0.00000000000e+00
1.49342724784e+03
1.49342724784e+03
0.00000000000e+00
1.49342724784e+03
1.49342724784e+03
0.00000000000e+00
1.50904698282e+03
1.50904698282e+03
0.00000000000e+00
1.52763241449e+03
1.52763241449e+03
0.00000000000e+00
1.54974663251e+03
1.54974663251e+03
0.00000000000e+00
1.57790632484e+03
1.57790632484e+03
0.00000000000e+00
1.60606601718e+03
1.60606601718e+03
0.00000000000e+00
1.53858192988e+03
1.44259748515e+03
0.00000000000e+00
1.52114931535e+03
1.44981831051e+03
0.00000000000e+00
1.50464630400e+03
1.45665408163e+03
0.00000000000e+00
1.48715643064e+03
1.46389862438e+03
0.00000000000e+00
1.47071067812e+03
1.47071067812e+03
0.00000000000e+00
1.47071067812e+03
1.47071067812e+03
0.00000000000e+00
1.45304681743e+03
1.47802728878e+03
0.00000000000e+00
1.43658747974e+03
1.48484496968e+03
0.00000000000e+00
1.42125052293e+03
1.49119774519e+03
0.00000000000e+00
1.42125052293e+03
1.49119774519e+03
0.00000000000e+00
1.40130004629e+03
1.49946150319e+03
0.00000000000e+00
1.38324876479e+03
1.50693858881e+03
0.00000000000e+00
1.36953298920e+03
1.51261984908e+03
0.00000000000e+00
1.35689390814e+03
1.51785512787e+03
0.00000000000e+00
1.34524700666e+03
1.52267943242e+03
0.00000000000e+00
1.33447013049e+03
1.52714336069e+03
0.00000000000e+00
1.32076403469e+03
1.53282061146e+03
0.00000000000e+00
1.30333253839e+03
1.54004097364e+03
0.00000000000e+00
1.26141807012e+03
1.55740251485e+03
0.00000000000e+00
1.53858192988e+03
1.44259748515e+03
0.00000000000e+00
1.52114931535e+03
1.44981831051e+03
0.00000000000e+00
1.50464630400e+03
1.45665408163e+03
0.00000000000e+00
1.48715643064e+03
1.46389862438e+03
0.00000000000e+00
1.47071067812e+03
1.47071067812e+03
0.00000000000e+00
1.47071067812e+03
1.47071067812e+03
0.00000000000e+00
1.45304681743e+03
1.47802728878e+03
0.00000000000e+00
1.43658747974e+03
1.48484496968e+03
0.00000000000e+00
1.42125052293e+03
1.49119774519e+03
0.00000000000e+00
1.42125052293e+03
1.49119774519e+03
0.00000000000e+00
1.40130004629e+03
1.49946150319e+03
0.00000000000e+00
1.38324876479e+03
1.50693858881e+03
0.00000000000e+00
1.36953298920e+03
1.51261984908e+03
0.00000000000e+00
1.35689390814e+03
1.51785512787e+03
0.00000000000e+00
1.34524700666e+03
1.52267943242e+03
0.00000000000e+00
1.33447013049e+03
1.52714336069e+03
0.00000000000e+00
1.32076403469e+03
1.53282061146e+03
0.00000000000e+00
1.30333253839e+03
1.54004097364e+03
0.00000000000e+00
1.26141807012e+03
1.55740251485e+03
0.00000000000e+00
1.35049190148e+03
1.38676982764e+03
0.00000000000e+00
1.36888437097e+03
1.41391404339e+03
0.00000000000e+00
1.38587121221e+03
1.43898378642e+03
0.00000000000e+00
1.39965561239e+03
1.45932726084e+03
0.00000000000e+00
1.41134230515e+03
1.47657486917e+03
0.00000000000e+00
1.42125052293e+03
1.49119774519e+03
0.00000000000e+00
1.42125052293e+03
1.49119774519e+03
0.00000000000e+00
1.42793393353e+03
1.50106134396e+03
0.00000000000e+00
1.43470544167e+03
1.51105495999e+03
0.00000000000e+00
1.43470544167e+03
1.51105495999e+03
0.00000000000e+00
1.44544778660e+03
1.52690886850e+03
0.00000000000e+00
1.45918158042e+03
1.54717765638e+03
0.00000000000e+00
1.47673985439e+03
1.57309073877e+03
0.00000000000e+00
1.49775706075e+03
1.60410862815e+03
0.00000000000e+00
1.51877426711e+03
1.63512651754e+03
0.00000000000e+00
1.35049190148e+03
1.38676982764e+03
0.00000000000e+00
1.36888437097e+03
1.41391404339e+03
0.00000000000e+00
1.38587121221e+03
1.43898378642e+03
0.00000000000e+00
1.39965561239e+03
1.45932726084e+03
0.00000000000e+00
1.41134230515e+03
1.47657486917e+03
0.00000000000e+00
1.42125052293e+03
1.49119774519e+03
0.00000000000e+00
1.42125052293e+03
1.49119774519e+03
0.00000000000e+00
1.42793393353e+03
1.50106134396e+03
0.00000000000e+00
1.43470544167e+03
1.51105495999e+03
0.00000000000e+00
1.43470544167e+03
1.51105495999e+03
0.00000000000e+00
1.44544778660e+03
1.52690886850e+03
0.00000000000e+00
1.45918158042e+03
1.54717765638e+03
0.00000000000e+00
1.47673985439e+03
1.57309073877e+03
0.00000000000e+00
1.49775706075e+03
1.60410862815e+03
0.00000000000e+00
1.51877426711e+03
1.63512651754e+03
0.00000000000e+00
1.35085784293e+03
1.53622518945e+03
0.00000000000e+00
1.36362541245e+03
1.53239248989e+03
0.00000000000e+00
1.37756419926e+03
1.52820820236e+03
0.00000000000e+00
1.39278164230e+03
1.52364007472e+03
0.00000000000e+00
1.40579827607e+03
1.51973260851e+03
0.00000000000e+00
1.41975046517e+03
1.51554429774e+03
0.00000000000e+00
1.43470544167e+03
1.51105495999e+03
0.00000000000e+00
1.43470544167e+03
1.51105495999e+03
0.00000000000e+00
1.44893214192e+03
1.50678424366e+03
0.00000000000e+00
1.46406634475e+03
1.50224110392e+03
0.00000000000e+00
1.47834301498e+03
1.49795538708e+03
0.00000000000e+00
1.49342724784e+03
1.49342724784e+03
0.00000000000e+00
1.49342724784e+03
1.49342724784e+03
0.00000000000e+00
1.51985841184e+03
1.48549287080e+03
0.00000000000e+00
1.54884647045e+03
1.47679093899e+03
0.00000000000e+00
1.56969205210e+03
1.47053329916e+03
0.00000000000e+00
1.59351857559e+03
1.46338080973e+03
0.00000000000e+00
1.63819068074e+03
1.44997068048e+03
0.00000000000e+00
1.35085784293e+03
1.53622518945e+03
0.00000000000e+00
1.36362541245e+03
1.53239248989e+03
0.00000000000e+00
1.37756419926e+03
1.52820820236e+03
0.00000000000e+00
1.39278164230e+03
1.52364007472e+03
0.00000000000e+00
1.40579827607e+03
1.51973260851e+03
0.00000000000e+00
1.41975046517e+03
1.51554429774e+03
0.00000000000e+00
1.43470544167e+03
1.51105495999e+03
0.00000000000e+00
1.43470544167e+03
1.51105495999e+03
0.00000000000e+00
1.44893214192e+03
1.50678424366e+03
0.00000000000e+00
1.46406634475e+03
1.50224110392e+03
0.00000000000e+00
1.47834301498e+03
1.49795538708e+03
0.00000000000e+00
1.49342724784e+03
1.49342724784e+03
0.00000000000e+00
1.49342724784e+03
1.49342724784e+03
0.00000000000e+00
1.51985841184e+03
1.48549287080e+03
0.00000000000e+00
1.54884647045e+03
1.47679093899e+03
0.00000000000e+00
1.56969205210e+03
1.47053329916e+03
0.00000000000e+00
1.59351857559e+03
1.46338080973e+03
0.00000000000e+00
1.63819068074e+03
1.44997068048e+03
0.00000000000e+00

</DataArray>
</Points>
<Cells>
<DataArray type="Int64" Name="connectivity" format="ascii">
0
1
1
2
2
3
3
4
5
6
6
7
8
9
9
10
10
11
11
12
12
13
14
15
15
16
16
17
17
18
19
20
20
21
22
23
23
24
24
25
25
26
26
27
28
29
29
30
30
31
31
32
33
34
34
35
35
36
37
38
38
39
39
40
40
41
41
42
42
43
43
44
44
45
45
46
47
48
48
49
49
50
50
51
52
53
53
54
54
55
56
57
57
58
58
59
59
60
60
61
61
62
62
63
63
64
64
65
66
67
67
68
68
69
69
70
70
71
72
73
73
74
75
76
76
77
77
78
78
79
79
80
81
82
82
83
83
84
84
85
85
86
87
88
88
89
90
91
91
92
92
93
93
94
94
95
96
97
97
98
98
99
99
100
100
101
101
102
103
104
104
105
105
106
106
107
108
109
109
110
110
111
111
112
112
113
114
115
115
116
116
117
117
118
118
119
119
120
121
122
122
123
123
124
124
125
126
127
127
128
128
129
129
130
130
131

</DataArray>
<DataArray type="Int64" Name="offsets" format="ascii">
2
4
6
8
10
12
14
16
18
20
22
24
26
28
30
32
34
36
38
40
42
44
46
48
50
52
54
56
58
60
62
64
66
68
70
72
74
76
78
80
82
84
86
88
90
92
94
96
98
100
102
104
106
108
110
112
114
116
118
120
122
124
126
128
130
132
134
136
138
140
142
144
146
148
150
152
154
156
158
160
162
164
166
168
170
172
174
176
178
180
182
184
186
188
190
192
194
196
198
200
202
204
206
208
210
212
214
216

</DataArray>
<DataArray type="Int64" Name="types" format="ascii">
3
3
3
3
3
3
3
3
3
3
3
3
3
3
3
3
3
3
3
3
3
3
3
3
3
3
3
3
3
3
3
3
3
3
3
3
3
3
3
3
3
3
3
3
3
3
3
3
3
3
3
3
3
3
3
3
3
3
3
3
3
3
3
3
3
3
3
3
3
3
3
3
3
3
3
3
3
3
3
3
3
3
3
3
3
3
3
3
3
3
3
3
3
3
3
3
3
3
3
3
3
3
3
3
3
3
3
3

</DataArray>
</Cells>
<PointData>
<DataArray type="Int64" Name="node_id" format="ascii">
0
1
2
3
4
5
6
7
8
9
10
11
12
13
14
15
16
17
18
19
20
21
22
23
24
25
26
27
0
1
2
3
4
5
6
7
8
9
10
11
12
13
14
15
16
17
18
19
20
21
22
23
24
25
26
27
28
29
30
31
32
33
34
35
36
37
0
1
2
3
4
5
6
7
8
9
10
11
12
13
14
15
16
17
18
19
20
21
22
23
24
25
26
27
28
29
0
1
2
3
4
5
6
7
8
9
10
11
12
13
14
15
16
17
18
19
20
21
22
23
24
25
26
27
28
29
30
31
32
33
34
35

</DataArray>
</PointData>
<CellData>
<DataArray type="Int64" Name="cell_id" format="ascii">
0
1
2
3
4
5
6
7
8
9
10
11
12
13
14
15
16
17
18
19
20
21
0
1
2
3
4
5
6
7
8
9
10
11
12
13
14
15
16
17
18
19
20
21
22
23
24
25
26
27
28
29
30
31
0
1
2
3
4
5
6
7
8
9
10
11
12
13
14
15
16
17
18
19
20
21
22
23
0
1
2
3
4
5
6
7
8
9
10
11
12
13
14
15
16
17
18
19
20
21
22
23
24
25
26
27
28
29

</DataArray>
<DataArray type="Int64" Name="grid_dim" format="ascii">
1
1
1
1
1
1
1
1
1
1
1
1
1
1
1
1
1
1
1
1
1
1
1
1
1
1
1
1
1
1
1
1
1
1
1
1
1
1
1
1
1
1
1
1
1
1
1
1
1
1
1
1
1
1
1
1
1
1
1
1
1
1
1
1
1
1
1
1
1
1
1
1
1
1
1
1
1
1
1
1
1
1
1
1
1
1
1
1
1
1
1
1
1
1
1
1
1
1
1
1
1
1
1
1
1
1
1
1

</DataArray>
<DataArray type="Float64" Name="interface_darcy_flux" format="ascii">
3.16455969048e-10
5.32717114940e-10
9.65792148964e-10
2.37983996363e-09
6.22391108589e-10
1.75942844325e-09
-8.92430109671e-09
-4.35351618814e-09
-3.28333556994e-09
-4.06732364594e-09
-7.39288448523e-09
1.89745723089e-11
6.57621529251e-11
2.94335611213e-10
1.11843153757e-09
-8.79334379146e-10
1.50938203353e-10
-8.54135453630e-09
-3.94514251724e-09
-3.64227313871e-09
-4.80660025023e-09
-7.46782732867e-09
9.17395142300e-11
-2.75863099385e-10
-6.80091830897e-10
-1.85803365193e-09
-9.38829707758e-10
-5.00043925829e-10
-9.05722157289e-10
-1.18856939600e-10
-6.30126016223e-12
-6.04388640441e-12
-1.41742998828e-11
-2.31237518410e-11
-2.89322170215e-11
-4.97777020923e-11
-8.32987113263e-11
-1.96409006557e-10
1.52309100668e-09
1.27593973536e-09
9.36375797915e-10
-1.76953929496e-10
1.56935432616e-09
8.67449858519e-10
5.04692065794e-11
8.05752178941e-10
4.93292864040e-10
4.00384797618e-10
4.04373528132e-10
3.91579761324e-10
3.56864522055e-10
4.43191999560e-10
5.54538651004e-10
1.33653996113e-09
3.72385173305e-10
3.39369416765e-10
2.75677597195e-10
3.39722194870e-10
9.28163485722e-10
4.37649241828e-10
1.41365898203e-09
-1.45408934075e-09
7.62187687474e-10
2.47179948400e-09
3.14234939951e-09
2.11900798873e-09
-1.02090198257e-10
-1.35625085534e-11
4.09553497646e-11
7.69431544329e-11
1.38431971324e-10
-4.14802683946e-10
-5.95670101357e-11
-2.89355773770e-09
-8.86342312357e-10
-5.41160195942e-10
-5.26479730793e-10
-8.90632310729e-10
-4.81944016371e-10
-4.52390228372e-10
-4.44861214706e-10
-3.46143147275e-10
-2.99034228086e-10
-8.95260525645e-11
-1.80355578775e-09
-8.88228924346e-10
-5.28861156929e-10
-3.25780879031e-10
-2.99329266233e-09
-1.64204365691e-09
-9.53831357402e-10
-1.03775324261e-09
-2.88225057763e-09
3.89845212602e-10
5.42852871523e-10
6.96516597044e-10
7.47057635611e-10
1.11391869235e-09
2.80986458527e-09
1.60284485012e-09
1.43063843903e-09
2.34873854331e-09
6.49620061351e-09
1.03167687910e-08
3.57511102504e-09
1.38748190240e-09
1.00803246269e-09
-4.95415317597e-11

</DataArray>
<DataArray type="Int64" Name="interface_id" format="ascii">
0
0
0
0
0
0
0
0
0
0
0
0
0
0
0
0
0
0
0
0
0
0
1
1
1
1
1
1
1
1
1
1
1
1
1
1
1
1
1
1
1
1
1
1
1
1
1
1
1
1
1
1
1
1
2
2
2
2
2
2
2
2
2
2
2
2
2
2
2
2
2
2
2
2
2
2
2
2
3
3
3
3
3
3
3
3
3
3
3
3
3
3
3
3
3
3
3
3
3
3
3
3
3
3
3
3
3
3

</DataArray>
<DataArray type="Int64" Name="is_mortar" format="ascii">
1
1
1
1
1
1
1
1
1
1
1
1
1
1
1
1
1
1
1
1
1
1
1
1
1
1
1
1
1
1
1
1
1
1
1
1
1
1
1
1
1
1
1
1
1
1
1
1
1
1
1
1
1
1
1
1
1
1
1
1
1
1
1
1
1
1
1
1
1
1
1
1
1
1
1
1
1
1
1
1
1
1
1
1
1
1
1
1
1
1
1
1
1
1
1
1
1
1
1
1
1
1
1
1
1
1
1
1

</DataArray>
<DataArray type="Int64" Name="mortar_side" format="ascii">
1
1
1
1
1
1
1
1
1
1
1
2
2
2
2
2
2
2
2
2
2
2
1
1
1
1
1
1
1
1
1
1
1
1
1
1
1
1
2
2
2
2
2
2
2
2
2
2
2
2
2
2
2
2
1
1
1
1
1
1
1
1
1
1
1
1
2
2
2
2
2
2
2
2
2
2
2
2
1
1
1
1
1
1
1
1
1
1
1
1
1
1
1
2
2
2
2
2
2
2
2
2
2
2
2
2
2
2

</DataArray>
<DataArray type="Float64" Name="u_interface" NumberOfComponents="2" format="ascii">
3.41608475806e-05
-1.28222245394e-03
3.10545839736e-04
-1.59343907307e-03
5.51169681561e-04
-2.00654355452e-03
8.32724914747e-04
-2.47695002328e-03
1.30593166153e-03
-2.89540586595e-03
1.74212247854e-03
-3.36911442742e-03
4.93092467776e-03
-4.97227743046e-03
4.89331511454e-03
-5.50586000251e-03
4.29537390596e-03
-5.26355424968e-03
3.34613334612e-03
-4.33290317298e-03
2.05059378964e-03
-2.41855213455e-03
-6.45981515417e-04
-1.22140240223e-03
-9.92291849821e-04
-1.21538760946e-03
-1.36383664286e-03
-1.22907608293e-03
-1.66273364551e-03
-1.21062081088e-03
-1.91489867362e-03
-1.07901066589e-03
-2.04686993708e-03
-1.00039883665e-03
-5.90440990702e-03
4.62029777084e-03
-5.92147908103e-03
4.78125941836e-03
-5.76622445980e-03
4.63226828454e-03
-5.13259104690e-03
3.96626741051e-03
-3.48737363208e-03
2.91164447507e-03
8.85859356818e-04
-3.90780750041e-03
8.44644704772e-04
-3.86408852841e-03
8.42749360670e-04
-3.54381050060e-03
9.60050817977e-04
-2.99400597956e-03
-1.84085237233e-03
-1.23048641827e-03
-1.91035584596e-03
-1.33504679548e-03
-1.97757943859e-03
-1.42031270661e-03
-1.01753459852e-03
2.86356858101e-04
-9.99218680393e-04
2.32431400928e-04
-8.97027106547e-04
2.36722040810e-04
-8.52965750899e-04
2.54119131100e-04
-8.22424309460e-04
2.78963496771e-04
-8.00003977505e-04
3.15180726602e-04
-7.86796437083e-04
3.64759483494e-04
-7.78862138834e-04
4.50237663933e-04
-8.53333138764e-04
6.81233218297e-04
8.85859356818e-04
-3.90780750041e-03
8.44644704772e-04
-3.86408852841e-03
8.42749360670e-04
-3.54381050060e-03
9.60050817977e-04
-2.99400597956e-03
-1.84085237234e-03
-1.23048641826e-03
-1.91035584596e-03
-1.33504679548e-03
-1.97757943859e-03
-1.42031270661e-03
-2.83851019482e-03
1.26396605682e-03
-2.92598572652e-03
1.26683581136e-03
-3.06049783425e-03
1.43980673671e-03
-3.06385218622e-03
1.78119670519e-03
-2.94191718776e-03
2.15326939413e-03
-2.78047002189e-03
2.27625923776e-03
-2.70130212344e-03
2.19281777646e-03
-2.62322868230e-03
2.06372219266e-03
-2.29884051907e-03
1.86247313444e-03
-4.76220142077e-04
-9.98038149149e-04
-9.35414588925e-04
-1.30403993312e-03
-1.36687493387e-03
-1.40720245724e-03
-1.68570031472e-03
-1.43750821703e-03
-1.90269035722e-03
-1.44443686927e-03
-2.09848258073e-03
-1.47489463799e-03
-2.22444878943e-03
-1.44841598513e-03
-4.84469117672e-03
3.72287096635e-03
-4.90653760907e-03
4.00061179004e-03
-4.75922753173e-03
4.31548767459e-03
-4.19942738659e-03
4.48979901812e-03
-3.08504736996e-03
4.38587624564e-03
-4.59212212639e-04
9.53725814580e-05
-6.45638007852e-04
2.39374360317e-04
-7.55119407257e-04
2.58997950474e-04
-8.41853629170e-04
2.73955784373e-04
-9.60876837560e-04
2.98040500492e-04
-2.85582489994e-03
1.33392800717e-03
-2.90904051903e-03
1.35822417220e-03
-4.84469117672e-03
3.72287096635e-03
-4.90653760907e-03
4.00061179004e-03
-4.75922753173e-03
4.31548767459e-03
-4.19942738659e-03
4.48979901812e-03
-3.26323996552e-03
4.17238569565e-03
-2.67855171074e-03
2.01376419141e-03
-2.72011656048e-03
1.58772453864e-03
-2.84616087188e-03
1.30492655034e-03
-2.92498678769e-03
1.22799836649e-03
-2.95000307696e-03
1.25890850274e-03
-2.94466245285e-03
1.33686579240e-03
-2.23370778616e-03
-1.40554992743e-03
-2.18657424218e-03
-1.30365974818e-03
-2.15665869749e-03
-1.16851573305e-03
-2.12063459041e-03
-1.02507213797e-03
1.97391280647e-03
-4.47081021270e-03
1.29100113947e-03
-4.40166450194e-03
9.33201641077e-04
-3.98086085009e-03
8.77369269434e-04
-3.58635534868e-03
1.15483050170e-03
-2.83777723099e-03
-3.23047133267e-03
2.64821039147e-03
-3.47030680719e-03
2.83790585075e-03
-3.75781174175e-03
3.02013753352e-03
-4.04772138051e-03
3.18122360482e-03
-4.32986871322e-03
3.32755067702e-03
-4.63381148095e-03
3.48587507659e-03
-4.88714846925e-03
3.70174311578e-03
-5.19225753123e-03
3.86857473708e-03
-5.49079508544e-03
4.00531311237e-03
-5.72840686042e-03
4.17301939543e-03
4.34921826134e-03
-4.93164799757e-03
4.85333911789e-03
-5.09280085224e-03
5.23535801930e-03
-4.44108901937e-03
5.18796319641e-03
-3.45784351697e-03
4.55454686866e-03
-2.14280263645e-03

</DataArray>
</CellData>
</Piece>
</UnstructuredGrid>
</VTKFile>
