<?xml version="1.0"?>
<VTKFile type="UnstructuredGrid" version="0.1" byte_order="LittleEndian">
<!--This file was created by meshio v5.3.5-->
<UnstructuredGrid>
<Piece NumberOfPoints="66" NumberOfCells="54">
<Points>
<DataArray type="Float64" Name="Points" NumberOfComponents="3" format="ascii">
1.39393398282e+03
1.39393398282e+03
0.00000000000e+00
1.41179535368e+03
1.41179535368e+03
0.00000000000e+00
1.43232233047e+03
1.43232233047e+03
0.00000000000e+00
1.45342838492e+03
1.45342838492e+03
0.00000000000e+00
1.47071067812e+03
1.47071067812e+03
0.00000000000e+00
1.47071067812e+03
1.47071067812e+03
0.00000000000e+00
1.48193258519e+03
1.48193258519e+03
0.00000000000e+00
1.49342724784e+03
1.49342724784e+03
0.00000000000e+00
1.49342724784e+03
1.49342724784e+03
0.00000000000e+00
1.50904698282e+03
1.50904698282e+03
0.00000000000e+00
1.52763241449e+03
1.52763241449e+03
0.00000000000e+00
1.54974663251e+03
1.54974663251e+03
0.00000000000e+00
1.57790632484e+03
1.57790632484e+03
0.00000000000e+00
1.60606601718e+03
1.60606601718e+03
0.00000000000e+00
1.53858192988e+03
1.44259748515e+03
0.00000000000e+00
1.52114931535e+03
1.44981831051e+03
0.00000000000e+00
1.50464630400e+03
1.45665408163e+03
0.00000000000e+00
1.48715643064e+03
1.46389862438e+03
0.00000000000e+00
1.47071067812e+03
1.47071067812e+03
0.00000000000e+00
1.47071067812e+03
1.47071067812e+03
0.00000000000e+00
1.45304681743e+03
1.47802728878e+03
0.00000000000e+00
1.43658747974e+03
1.48484496968e+03
0.00000000000e+00
1.42125052293e+03
1.49119774519e+03
0.00000000000e+00
1.42125052293e+03
1.49119774519e+03
0.00000000000e+00
1.40130004629e+03
1.49946150319e+03
0.00000000000e+00
1.38324876479e+03
1.50693858881e+03
0.00000000000e+00
1.36953298920e+03
1.51261984908e+03
0.00000000000e+00
1.35689390814e+03
1.51785512787e+03
0.00000000000e+00
1.34524700666e+03
1.52267943242e+03
0.00000000000e+00
1.33447013049e+03
1.52714336069e+03
0.00000000000e+00
1.32076403469e+03
1.53282061146e+03
0.00000000000e+00
1.30333253839e+03
1.54004097364e+03
0.00000000000e+00
1.26141807012e+03
1.55740251485e+03
0.00000000000e+00
1.35049190148e+03
1.38676982764e+03
0.00000000000e+00
1.36888437097e+03
1.41391404339e+03
0.00000000000e+00
1.38587121221e+03
1.43898378642e+03
0.00000000000e+00
1.39965561239e+03
1.45932726084e+03
0.00000000000e+00
1.41134230515e+03
1.47657486917e+03
0.00000000000e+00
1.42125052293e+03
1.49119774519e+03
0.00000000000e+00
1.42125052293e+03
1.49119774519e+03
0.00000000000e+00
1.42793393353e+03
1.50106134396e+03
0.00000000000e+00
1.43470544167e+03
1.51105495999e+03
0.00000000000e+00
1.43470544167e+03
1.51105495999e+03
0.00000000000e+00
1.44544778660e+03
1.52690886850e+03
0.00000000000e+00
1.45918158042e+03
1.54717765638e+03
0.00000000000e+00
1.47673985439e+03
1.57309073877e+03
0.00000000000e+00
1.49775706075e+03
1.60410862815e+03
0.00000000000e+00
1.51877426711e+03
1.63512651754e+03
0.00000000000e+00
1.35085784293e+03
1.53622518945e+03
0.00000000000e+00
1.36362541245e+03
1.53239248989e+03
0.00000000000e+00
1.37756419926e+03
1.52820820236e+03
0.00000000000e+00
1.39278164230e+03
1.52364007472e+03
0.00000000000e+00
1.40579827607e+03
1.51973260851e+03
0.00000000000e+00
1.41975046517e+03
1.51554429774e+03
0.00000000000e+00
1.43470544167e+03
1.51105495999e+03
0.00000000000e+00
1.43470544167e+03
1.51105495999e+03
0.00000000000e+00
1.44893214192e+03
1.50678424366e+03
0.00000000000e+00
1.46406634475e+03
1.50224110392e+03
0.00000000000e+00
1.47834301498e+03
1.49795538708e+03
0.00000000000e+00
1.49342724784e+03
1.49342724784e+03
0.00000000000e+00
1.49342724784e+03
1.49342724784e+03
0.00000000000e+00
1.51985841184e+03
1.48549287080e+03
0.00000000000e+00
1.54884647045e+03
1.47679093899e+03
0.00000000000e+00
1.56969205210e+03
1.47053329916e+03
0.00000000000e+00
1.59351857559e+03
1.46338080973e+03
0.00000000000e+00
1.63819068074e+03
1.44997068048e+03
0.00000000000e+00

</DataArray>
</Points>
<Cells>
<DataArray type="Int64" Name="connectivity" format="ascii">
0
1
1
2
2
3
3
4
5
6
6
7
8
9
9
10
10
11
11
12
12
13
14
15
15
16
16
17
17
18
19
20
20
21
21
22
23
24
24
25
25
26
26
27
27
28
28
29
29
30
30
31
31
32
33
34
34
35
35
36
36
37
37
38
39
40
40
41
42
43
43
44
44
45
45
46
46
47
48
49
49
50
50
51
51
52
52
53
53
54
55
56
56
57
57
58
58
59
60
61
61
62
62
63
63
64
64
65

</DataArray>
<DataArray type="Int64" Name="offsets" format="ascii">
2
4
6
8
10
12
14
16
18
20
22
24
26
28
30
32
34
36
38
40
42
44
46
48
50
52
54
56
58
60
62
64
66
68
70
72
74
76
78
80
82
84
86
88
90
92
94
96
98
100
102
104
106
108

</DataArray>
<DataArray type="Int64" Name="types" format="ascii">
3
3
3
3
3
3
3
3
3
3
3
3
3
3
3
3
3
3
3
3
3
3
3
3
3
3
3
3
3
3
3
3
3
3
3
3
3
3
3
3
3
3
3
3
3
3
3
3
3
3
3
3
3
3

</DataArray>
</Cells>
<PointData>
<DataArray type="Int64" Name="node_id" format="ascii">
0
1
2
3
4
5
6
7
8
9
10
11
12
13
0
1
2
3
4
5
6
7
8
9
10
11
12
13
14
15
16
17
18
0
1
2
3
4
5
6
7
8
9
10
11
12
13
14
0
1
2
3
4
5
6
7
8
9
10
11
12
13
14
15
16
17

</DataArray>
</PointData>
<CellData>
<DataArray type="Float64" Name="aperture" format="ascii">
1.04262760077e-03
1.10068350596e-03
1.16790090714e-03
1.24252741832e-03
1.33210366785e-03
1.41131813331e-03
2.42634938513e-03
2.47607002118e-03
2.39759397524e-03
2.17558344392e-03
1.76174044206e-03
1.00000000000e-03
1.00000000000e-03
1.00000000000e-03
1.00000000000e-03
1.00000000000e-03
1.00000000000e-03
1.00000000000e-03
1.02094361719e-03
1.02198108879e-03
1.02600895279e-03
1.05085539523e-03
1.08302531063e-03
1.09422681339e-03
1.08398527335e-03
1.06743602086e-03
1.04593051130e-03
1.05356803257e-03
1.05938889890e-03
1.04400799367e-03
1.02853736515e-03
1.01987925044e-03
1.22531271494e-03
1.22001868662e-03
1.00000000000e-03
1.00000000000e-03
1.00000000000e-03
1.00000000000e-03
1.00197167639e-03
1.04204031234e-03
1.09134483497e-03
1.12795030317e-03
1.14289498721e-03
1.14601669716e-03
1.14494911721e-03
1.39915851448e-03
1.39554419803e-03
1.38685464038e-03
1.38224493334e-03
1.02373498325e-03
1.03560743064e-03
1.07493528486e-03
1.12966008724e-03
1.15774579025e-03

</DataArray>
<DataArray type="Int64" Name="cell_id" format="ascii">
0
1
2
3
4
5
6
7
8
9
10
0
1
2
3
4
5
6
7
8
9
10
11
12
13
14
15
0
1
2
3
4
5
6
7
8
9
10
11
0
1
2
3
4
5
6
7
8
9
10
11
12
13
14

</DataArray>
<DataArray type="Float64" Name="contact_traction" NumberOfComponents="2" format="ascii">
0.00000000000e+00
0.00000000000e+00
0.00000000000e+00
0.00000000000e+00
0.00000000000e+00
0.00000000000e+00
0.00000000000e+00
0.00000000000e+00
0.00000000000e+00
0.00000000000e+00
0.00000000000e+00
0.00000000000e+00
0.00000000000e+00
0.00000000000e+00
0.00000000000e+00
0.00000000000e+00
0.00000000000e+00
0.00000000000e+00
0.00000000000e+00
0.00000000000e+00
0.00000000000e+00
0.00000000000e+00
1.94899476561e+04
-3.65793690364e+04
1.49962333119e+04
-4.36539743696e+04
3.57493391470e+03
-3.52517507405e+04
-1.55599039368e+03
-7.19527086688e+03
-7.38045259092e+03
-9.58293704678e+03
-5.81952212758e+03
-1.31855149465e+04
-4.66649551647e+03
-1.34952548157e+04
-4.44740037632e+03
-4.44740037632e+03
-5.97220451847e+03
-5.97220451847e+03
0.00000000000e+00
0.00000000000e+00
0.00000000000e+00
0.00000000000e+00
0.00000000000e+00
0.00000000000e+00
0.00000000000e+00
0.00000000000e+00
0.00000000000e+00
0.00000000000e+00
0.00000000000e+00
0.00000000000e+00
0.00000000000e+00
0.00000000000e+00
0.00000000000e+00
0.00000000000e+00
0.00000000000e+00
0.00000000000e+00
0.00000000000e+00
0.00000000000e+00
0.00000000000e+00
0.00000000000e+00
1.38244511167e+03
-1.38244511167e+03
0.00000000000e+00
0.00000000000e+00
0.00000000000e+00
0.00000000000e+00
1.28602640833e+04
-4.13201064919e+04
1.13781682178e+04
-4.81570072240e+04
8.25777938606e+02
-5.23206933321e+04
-1.53644705238e+04
-4.46157268039e+04
-2.27946769329e+04
-2.27946769329e+04
0.00000000000e+00
0.00000000000e+00
0.00000000000e+00
0.00000000000e+00
0.00000000000e+00
0.00000000000e+00
0.00000000000e+00
0.00000000000e+00
0.00000000000e+00
0.00000000000e+00
0.00000000000e+00
0.00000000000e+00
0.00000000000e+00
0.00000000000e+00
0.00000000000e+00
0.00000000000e+00
0.00000000000e+00
0.00000000000e+00
0.00000000000e+00
0.00000000000e+00
4.29210725021e+04
-4.29210725021e+04
1.44032069481e+04
-1.44032069481e+04
0.00000000000e+00
0.00000000000e+00
0.00000000000e+00
0.00000000000e+00
0.00000000000e+00
0.00000000000e+00

</DataArray>
<DataArray type="Int64" Name="grid_dim" format="ascii">
1
1
1
1
1
1
1
1
1
1
1
1
1
1
1
1
1
1
1
1
1
1
1
1
1
1
1
1
1
1
1
1
1
1
1
1
1
1
1
1
1
1
1
1
1
1
1
1
1
1
1
1
1
1

</DataArray>
<DataArray type="Int64" Name="is_mortar" format="ascii">
0
0
0
0
0
0
0
0
0
0
0
0
0
0
0
0
0
0
0
0
0
0
0
0
0
0
0
0
0
0
0
0
0
0
0
0
0
0
0
0
0
0
0
0
0
0
0
0
0
0
0
0
0
0

</DataArray>
<DataArray type="Int64" Name="mortar_side" format="ascii">
0
0
0
0
0
0
0
0
0
0
0
0
0
0
0
0
0
0
0
0
0
0
0
0
0
0
0
0
0
0
0
0
0
0
0
0
0
0
0
0
0
0
0
0
0
0
0
0
0
0
0
0
0
0

</DataArray>
<DataArray type="Float64" Name="pressure" format="ascii">
-4.26880297417e+03
-4.26595845518e+03
-4.23995182923e+03
-4.19055527342e+03
1.46380865180e+04
1.46752995381e+04
1.00000000000e+05
9.97403208283e+04
9.94975777230e+04
9.92443543483e+04
9.90259266387e+04
1.73158510477e+04
1.72739685520e+04
1.72055576454e+04
1.71275993476e+04
2.98369733540e+03
2.95474906745e+03
2.92118023883e+03
-3.87200810033e+03
-3.89005831337e+03
-3.90890104432e+03
-3.92609832098e+03
-3.94022718245e+03
-3.94960158997e+03
-3.95599207115e+03
-3.95922869976e+03
-3.95769499097e+03
-5.35701463335e+03
-5.33604725614e+03
-5.29756118630e+03
-5.25651783351e+03
-5.22194453725e+03
5.72123377247e+02
5.87140577805e+02
2.70332329120e+04
2.72094320351e+04
2.74308276711e+04
2.76126289348e+04
2.76794715149e+04
9.52967323704e+02
9.57876427654e+02
9.71117579576e+02
9.93886851703e+02
1.02307136101e+03
1.05962019313e+03
1.59609164934e+04
1.59934048579e+04
1.60470619356e+04
1.61114478533e+04
4.12829010197e+04
4.10197738138e+04
4.07648231964e+04
4.05780141537e+04
4.03773432012e+04

</DataArray>
<DataArray type="Float64" Name="specific_volume" format="ascii">
1.04262760077e-03
1.10068350596e-03
1.16790090714e-03
1.24252741832e-03
1.33210366785e-03
1.41131813331e-03
2.42634938513e-03
2.47607002118e-03
2.39759397524e-03
2.17558344392e-03
1.76174044206e-03
1.00000000000e-03
1.00000000000e-03
1.00000000000e-03
1.00000000000e-03
1.00000000000e-03
1.00000000000e-03
1.00000000000e-03
1.02094361719e-03
1.02198108879e-03
1.02600895279e-03
1.05085539523e-03
1.08302531063e-03
1.09422681339e-03
1.08398527335e-03
1.06743602086e-03
1.04593051130e-03
1.05356803257e-03
1.05938889890e-03
1.04400799367e-03
1.02853736515e-03
1.01987925044e-03
1.22531271494e-03
1.22001868662e-03
1.00000000000e-03
1.00000000000e-03
1.00000000000e-03
1.00000000000e-03
1.00197167639e-03
1.04204031234e-03
1.09134483497e-03
1.12795030317e-03
1.14289498721e-03
1.14601669716e-03
1.14494911721e-03
1.39915851448e-03
1.39554419803e-03
1.38685464038e-03
1.38224493334e-03
1.02373498325e-03
1.03560743064e-03
1.07493528486e-03
1.12966008724e-03
1.15774579025e-03

</DataArray>
<DataArray type="Int64" Name="states" format="ascii">
2
2
2
2
2
2
2
2
2
2
2
0
0
0
0
0
0
0
1
1
2
2
2
2
2
2
2
2
2
2
2
1
2
2
0
0
0
0
1
2
2
2
2
2
2
2
2
2
2
1
1
2
2
2

</DataArray>
<DataArray type="Int64" Name="subdomain_id" format="ascii">
1
1
1
1
1
1
1
1
1
1
1
2
2
2
2
2
2
2
2
2
2
2
2
2
2
2
2
3
3
3
3
3
3
3
3
3
3
3
3
4
4
4
4
4
4
4
4
4
4
4
4
4
4
4

</DataArray>
</CellData>
</Piece>
</UnstructuredGrid>
</VTKFile>
