<?xml version="1.0"?>
<VTKFile type="UnstructuredGrid" version="0.1" byte_order="LittleEndian">
<!--This file was created by meshio v5.3.5-->
<UnstructuredGrid>
<Piece NumberOfPoints="132" NumberOfCells="108">
<Points>
<DataArray type="Float64" Name="Points" NumberOfComponents="3" format="ascii">
1.39393398282e+03
1.39393398282e+03
0.00000000000e+00
1.41179535368e+03
1.41179535368e+03
0.00000000000e+00
1.43232233047e+03
1.43232233047e+03
0.00000000000e+00
1.45342838492e+03
1.45342838492e+03
0.00000000000e+00
1.47071067812e+03
1.47071067812e+03
0.00000000000e+00
1.47071067812e+03
1.47071067812e+03
0.00000000000e+00
1.48193258519e+03
1.48193258519e+03
0.00000000000e+00
1.49342724784e+03
1.49342724784e+03
0.00000000000e+00
1.49342724784e+03
1.49342724784e+03
0.00000000000e+00
1.50904698282e+03
1.50904698282e+03
0.00000000000e+00
1.52763241449e+03
1.52763241449e+03
0.00000000000e+00
1.54974663251e+03
1.54974663251e+03
0.00000000000e+00
1.57790632484e+03
1.57790632484e+03
0.00000000000e+00
1.60606601718e+03
1.60606601718e+03
0.00000000000e+00
1.39393398282e+03
1.39393398282e+03
0.00000000000e+00
1.41179535368e+03
1.41179535368e+03
0.00000000000e+00
1.43232233047e+03
1.43232233047e+03
0.00000000000e+00
1.45342838492e+03
1.45342838492e+03
0.00000000000e+00
1.47071067812e+03
1.47071067812e+03
0.00000000000e+00
1.47071067812e+03
1.47071067812e+03
0.00000000000e+00
1.48193258519e+03
1.48193258519e+03
0.00000000000e+00
1.49342724784e+03
1.49342724784e+03
0.00000000000e+00
1.49342724784e+03
1.49342724784e+03
0.00000000000e+00
1.50904698282e+03
1.50904698282e+03
0.00000000000e+00
1.52763241449e+03
1.52763241449e+03
0.00000000000e+00
1.54974663251e+03
1.54974663251e+03
0.00000000000e+00
1.57790632484e+03
1.57790632484e+03
0.00000000000e+00
1.60606601718e+03
1.60606601718e+03
0.00000000000e+00
1.53858192988e+03
1.44259748515e+03
-3.17609274809e-14
1.52114931535e+03
1.44981831051e+03
-2.75711842631e-14
1.50464630400e+03
1.45665408163e+03
-2.36048612666e-14
1.48715643064e+03
1.46389862438e+03
-1.94013564997e-14
1.47071067812e+03
1.47071067812e+03
-1.54487950524e-14
1.47071067812e+03
1.47071067812e+03
-1.54487950524e-14
1.45304681743e+03
1.47802728878e+03
-1.12034742825e-14
1.43658747974e+03
1.48484496968e+03
-7.24764778577e-15
1.42125052293e+03
1.49119774519e+03
-3.56157357826e-15
1.42125052293e+03
1.49119774519e+03
-3.56157357826e-15
1.40130004629e+03
1.49946150319e+03
1.23331097877e-15
1.38324876479e+03
1.50693858881e+03
5.57174421368e-15
1.36953298920e+03
1.51261984908e+03
8.86818478458e-15
1.35689390814e+03
1.51785512787e+03
1.19058532910e-14
1.34524700666e+03
1.52267943242e+03
1.47050620056e-14
1.33447013049e+03
1.52714336069e+03
1.72951694016e-14
1.32076403469e+03
1.53282061146e+03
2.05892835364e-14
1.30333253839e+03
1.54004097364e+03
2.47787580011e-14
1.26141807012e+03
1.55740251485e+03
3.48524539966e-14
1.53858192988e+03
1.44259748515e+03
-3.17609274809e-14
1.52114931535e+03
1.44981831051e+03
-2.75711842631e-14
1.50464630400e+03
1.45665408163e+03
-2.36048612666e-14
1.48715643064e+03
1.46389862438e+03
-1.94013564997e-14
1.47071067812e+03
1.47071067812e+03
-1.54487950524e-14
1.47071067812e+03
1.47071067812e+03
-1.54487950524e-14
1.45304681743e+03
1.47802728878e+03
-1.12034742825e-14
1.43658747974e+03
1.48484496968e+03
-7.24764778577e-15
1.42125052293e+03
1.49119774519e+03
-3.56157357826e-15
1.42125052293e+03
1.49119774519e+03
-3.56157357826e-15
1.40130004629e+03
1.49946150319e+03
1.23331097877e-15
1.38324876479e+03
1.50693858881e+03
5.57174421368e-15
1.36953298920e+03
1.51261984908e+03
8.86818478458e-15
1.35689390814e+03
1.51785512787e+03
1.19058532910e-14
1.34524700666e+03
1.52267943242e+03
1.47050620056e-14
1.33447013049e+03
1.52714336069e+03
1.72951694016e-14
1.32076403469e+03
1.53282061146e+03
2.05892835364e-14
1.30333253839e+03
1.54004097364e+03
2.47787580011e-14
1.26141807012e+03
1.55740251485e+03
3.48524539966e-14
1.35049190148e+03
1.38676982764e+03
0.00000000000e+00
1.36888437097e+03
1.41391404339e+03
0.00000000000e+00
1.38587121221e+03
1.43898378642e+03
0.00000000000e+00
1.39965561239e+03
1.45932726084e+03
0.00000000000e+00
1.41134230515e+03
1.47657486917e+03
0.00000000000e+00
1.42125052293e+03
1.49119774519e+03
0.00000000000e+00
1.42125052293e+03
1.49119774519e+03
0.00000000000e+00
1.42793393353e+03
1.50106134396e+03
0.00000000000e+00
1.43470544167e+03
1.51105495999e+03
0.00000000000e+00
1.43470544167e+03
1.51105495999e+03
0.00000000000e+00
1.44544778660e+03
1.52690886850e+03
0.00000000000e+00
1.45918158042e+03
1.54717765638e+03
0.00000000000e+00
1.47673985439e+03
1.57309073877e+03
0.00000000000e+00
1.49775706075e+03
1.60410862815e+03
0.00000000000e+00
1.51877426711e+03
1.63512651754e+03
0.00000000000e+00
1.35049190148e+03
1.38676982764e+03
0.00000000000e+00
1.36888437097e+03
1.41391404339e+03
0.00000000000e+00
1.38587121221e+03
1.43898378642e+03
0.00000000000e+00
1.39965561239e+03
1.45932726084e+03
0.00000000000e+00
1.41134230515e+03
1.47657486917e+03
0.00000000000e+00
1.42125052293e+03
1.49119774519e+03
0.00000000000e+00
1.42125052293e+03
1.49119774519e+03
0.00000000000e+00
1.42793393353e+03
1.50106134396e+03
0.00000000000e+00
1.43470544167e+03
1.51105495999e+03
0.00000000000e+00
1.43470544167e+03
1.51105495999e+03
0.00000000000e+00
1.44544778660e+03
1.52690886850e+03
0.00000000000e+00
1.45918158042e+03
1.54717765638e+03
0.00000000000e+00
1.47673985439e+03
1.57309073877e+03
0.00000000000e+00
1.49775706075e+03
1.60410862815e+03
0.00000000000e+00
1.51877426711e+03
1.63512651754e+03
0.00000000000e+00
1.35085784293e+03
1.53622518945e+03
0.00000000000e+00
1.36362541245e+03
1.53239248989e+03
0.00000000000e+00
1.37756419926e+03
1.52820820236e+03
0.00000000000e+00
1.39278164230e+03
1.52364007472e+03
0.00000000000e+00
1.40579827607e+03
1.51973260851e+03
0.00000000000e+00
1.41975046517e+03
1.51554429774e+03
0.00000000000e+00
1.43470544167e+03
1.51105495999e+03
0.00000000000e+00
1.43470544167e+03
1.51105495999e+03
0.00000000000e+00
1.44893214192e+03
1.50678424366e+03
0.00000000000e+00
1.46406634475e+03
1.50224110392e+03
0.00000000000e+00
1.47834301498e+03
1.49795538708e+03
0.00000000000e+00
1.49342724784e+03
1.49342724784e+03
0.00000000000e+00
1.49342724784e+03
1.49342724784e+03
0.00000000000e+00
1.51985841184e+03
1.48549287080e+03
0.00000000000e+00
1.54884647045e+03
1.47679093899e+03
0.00000000000e+00
1.56969205210e+03
1.47053329916e+03
0.00000000000e+00
1.59351857559e+03
1.46338080973e+03
0.00000000000e+00
1.63819068074e+03
1.44997068048e+03
0.00000000000e+00
1.35085784293e+03
1.53622518945e+03
0.00000000000e+00
1.36362541245e+03
1.53239248989e+03
0.00000000000e+00
1.37756419926e+03
1.52820820236e+03
0.00000000000e+00
1.39278164230e+03
1.52364007472e+03
0.00000000000e+00
1.40579827607e+03
1.51973260851e+03
0.00000000000e+00
1.41975046517e+03
1.51554429774e+03
0.00000000000e+00
1.43470544167e+03
1.51105495999e+03
0.00000000000e+00
1.43470544167e+03
1.51105495999e+03
0.00000000000e+00
1.44893214192e+03
1.50678424366e+03
0.00000000000e+00
1.46406634475e+03
1.50224110392e+03
0.00000000000e+00
1.47834301498e+03
1.49795538708e+03
0.00000000000e+00
1.49342724784e+03
1.49342724784e+03
0.00000000000e+00
1.49342724784e+03
1.49342724784e+03
0.00000000000e+00
1.51985841184e+03
1.48549287080e+03
0.00000000000e+00
1.54884647045e+03
1.47679093899e+03
0.00000000000e+00
1.56969205210e+03
1.47053329916e+03
0.00000000000e+00
1.59351857559e+03
1.46338080973e+03
0.00000000000e+00
1.63819068074e+03
1.44997068048e+03
0.00000000000e+00

</DataArray>
</Points>
<Cells>
<DataArray type="Int64" Name="connectivity" format="ascii">
0
1
1
2
2
3
3
4
5
6
6
7
8
9
9
10
10
11
11
12
12
13
14
15
15
16
16
17
17
18
19
20
20
21
22
23
23
24
24
25
25
26
26
27
28
29
29
30
30
31
31
32
33
34
34
35
35
36
37
38
38
39
39
40
40
41
41
42
42
43
43
44
44
45
45
46
47
48
48
49
49
50
50
51
52
53
53
54
54
55
56
57
57
58
58
59
59
60
60
61
61
62
62
63
63
64
64
65
66
67
67
68
68
69
69
70
70
71
72
73
73
74
75
76
76
77
77
78
78
79
79
80
81
82
82
83
83
84
84
85
85
86
87
88
88
89
90
91
91
92
92
93
93
94
94
95
96
97
97
98
98
99
99
100
100
101
101
102
103
104
104
105
105
106
106
107
108
109
109
110
110
111
111
112
112
113
114
115
115
116
116
117
117
118
118
119
119
120
121
122
122
123
123
124
124
125
126
127
127
128
128
129
129
130
130
131

</DataArray>
<DataArray type="Int64" Name="offsets" format="ascii">
2
4
6
8
10
12
14
16
18
20
22
24
26
28
30
32
34
36
38
40
42
44
46
48
50
52
54
56
58
60
62
64
66
68
70
72
74
76
78
80
82
84
86
88
90
92
94
96
98
100
102
104
106
108
110
112
114
116
118
120
122
124
126
128
130
132
134
136
138
140
142
144
146
148
150
152
154
156
158
160
162
164
166
168
170
172
174
176
178
180
182
184
186
188
190
192
194
196
198
200
202
204
206
208
210
212
214
216

</DataArray>
<DataArray type="Int64" Name="types" format="ascii">
3
3
3
3
3
3
3
3
3
3
3
3
3
3
3
3
3
3
3
3
3
3
3
3
3
3
3
3
3
3
3
3
3
3
3
3
3
3
3
3
3
3
3
3
3
3
3
3
3
3
3
3
3
3
3
3
3
3
3
3
3
3
3
3
3
3
3
3
3
3
3
3
3
3
3
3
3
3
3
3
3
3
3
3
3
3
3
3
3
3
3
3
3
3
3
3
3
3
3
3
3
3
3
3
3
3
3
3

</DataArray>
</Cells>
<PointData>
<DataArray type="Int64" Name="node_id" format="ascii">
0
1
2
3
4
5
6
7
8
9
10
11
12
13
14
15
16
17
18
19
20
21
22
23
24
25
26
27
0
1
2
3
4
5
6
7
8
9
10
11
12
13
14
15
16
17
18
19
20
21
22
23
24
25
26
27
28
29
30
31
32
33
34
35
36
37
0
1
2
3
4
5
6
7
8
9
10
11
12
13
14
15
16
17
18
19
20
21
22
23
24
25
26
27
28
29
0
1
2
3
4
5
6
7
8
9
10
11
12
13
14
15
16
17
18
19
20
21
22
23
24
25
26
27
28
29
30
31
32
33
34
35

</DataArray>
</PointData>
<CellData>
<DataArray type="Int64" Name="cell_id" format="ascii">
0
1
2
3
4
5
6
7
8
9
10
11
12
13
14
15
16
17
18
19
20
21
0
1
2
3
4
5
6
7
8
9
10
11
12
13
14
15
16
17
18
19
20
21
22
23
24
25
26
27
28
29
30
31
0
1
2
3
4
5
6
7
8
9
10
11
12
13
14
15
16
17
18
19
20
21
22
23
0
1
2
3
4
5
6
7
8
9
10
11
12
13
14
15
16
17
18
19
20
21
22
23
24
25
26
27
28
29

</DataArray>
<DataArray type="Int64" Name="grid_dim" format="ascii">
1
1
1
1
1
1
1
1
1
1
1
1
1
1
1
1
1
1
1
1
1
1
1
1
1
1
1
1
1
1
1
1
1
1
1
1
1
1
1
1
1
1
1
1
1
1
1
1
1
1
1
1
1
1
1
1
1
1
1
1
1
1
1
1
1
1
1
1
1
1
1
1
1
1
1
1
1
1
1
1
1
1
1
1
1
1
1
1
1
1
1
1
1
1
1
1
1
1
1
1
1
1
1
1
1
1
1
1

</DataArray>
<DataArray type="Float64" Name="interface_darcy_flux" format="ascii">
4.07319346522e-11
5.94158921910e-11
1.00287224003e-10
2.33154171949e-10
5.75434123721e-11
1.84271212962e-10
-9.01132968611e-10
-4.38935255663e-10
-3.30975292124e-10
-4.10729050601e-10
-7.48643760438e-10
1.08192459662e-11
1.34825697110e-11
3.51993793899e-11
1.17340771953e-10
-8.32209731010e-11
1.50173863716e-11
-8.79006964763e-10
-4.06748946455e-10
-3.74989433239e-10
-4.92647578439e-10
-7.60658387114e-10
2.18468401558e-11
-2.02083072014e-11
-6.10311114037e-11
-1.77546374198e-10
-9.78432867203e-11
-5.04494926729e-11
-8.72235458686e-11
-1.79444983720e-11
-2.47998961200e-12
-1.54162659005e-12
-2.13437237882e-12
-2.83001015191e-12
-3.29460181949e-12
-5.43531849120e-12
-8.83373184561e-12
-1.86822915004e-11
1.68193109444e-10
1.40057515902e-10
1.04876277488e-10
-8.50949222643e-12
1.49270088083e-10
8.23853456013e-11
4.14091281969e-12
7.34136782366e-11
4.73770192930e-11
3.81508610696e-11
3.85985804219e-11
3.79333491724e-11
3.57423045027e-11
4.55732117842e-11
5.79702828007e-11
1.43903697958e-10
4.13593777366e-11
3.20702373908e-11
2.51419549794e-11
3.16815830817e-11
8.83180273421e-11
4.23505440402e-11
1.34587634062e-10
-1.34951661690e-10
8.61992138186e-11
2.60314129705e-10
3.28751921625e-10
2.25316723348e-10
-5.02583434741e-12
1.03033973432e-12
5.83084141194e-12
9.65685183692e-12
1.85816516708e-11
-3.41468051993e-11
1.50750514251e-12
-2.65389702544e-10
-7.46328851410e-11
-3.94607125369e-11
-3.72450443936e-11
-7.19295364671e-11
-4.60601326516e-11
-4.36735174786e-11
-4.29560466878e-11
-3.35151821490e-11
-2.99670067929e-11
-1.65136479174e-11
-1.71125303020e-10
-8.41902022112e-11
-5.04230073598e-11
-3.21013886192e-11
-3.21045252893e-10
-1.75288641884e-10
-9.88329454775e-11
-1.04934402732e-10
-2.87093221306e-10
4.28836701424e-11
5.71073758203e-11
7.16104379480e-11
7.50219250434e-11
1.08698967283e-10
2.64477323912e-10
1.54385426196e-10
1.43442162895e-10
2.39500728640e-10
6.64985219406e-10
1.03971974934e-09
3.58819205956e-10
1.39382994101e-10
1.03288947427e-10
5.98829237601e-12

</DataArray>
<DataArray type="Int64" Name="interface_id" format="ascii">
0
0
0
0
0
0
0
0
0
0
0
0
0
0
0
0
0
0
0
0
0
0
1
1
1
1
1
1
1
1
1
1
1
1
1
1
1
1
1
1
1
1
1
1
1
1
1
1
1
1
1
1
1
1
2
2
2
2
2
2
2
2
2
2
2
2
2
2
2
2
2
2
2
2
2
2
2
2
3
3
3
3
3
3
3
3
3
3
3
3
3
3
3
3
3
3
3
3
3
3
3
3
3
3
3
3
3
3

</DataArray>
<DataArray type="Int64" Name="is_mortar" format="ascii">
1
1
1
1
1
1
1
1
1
1
1
1
1
1
1
1
1
1
1
1
1
1
1
1
1
1
1
1
1
1
1
1
1
1
1
1
1
1
1
1
1
1
1
1
1
1
1
1
1
1
1
1
1
1
1
1
1
1
1
1
1
1
1
1
1
1
1
1
1
1
1
1
1
1
1
1
1
1
1
1
1
1
1
1
1
1
1
1
1
1
1
1
1
1
1
1
1
1
1
1
1
1
1
1
1
1
1
1

</DataArray>
<DataArray type="Int64" Name="mortar_side" format="ascii">
1
1
1
1
1
1
1
1
1
1
1
2
2
2
2
2
2
2
2
2
2
2
1
1
1
1
1
1
1
1
1
1
1
1
1
1
1
1
2
2
2
2
2
2
2
2
2
2
2
2
2
2
2
2
1
1
1
1
1
1
1
1
1
1
1
1
2
2
2
2
2
2
2
2
2
2
2
2
1
1
1
1
1
1
1
1
1
1
1
1
1
1
1
2
2
2
2
2
2
2
2
2
2
2
2
2
2
2

</DataArray>
<DataArray type="Float64" Name="u_interface" NumberOfComponents="2" format="ascii">
1.27915275842e-06
-1.20998502366e-04
2.66768104445e-05
-1.51019118960e-04
5.03018554930e-05
-1.91426841035e-04
7.86294310728e-05
-2.38575622234e-04
1.26239585048e-04
-2.80763479843e-04
1.70167356261e-04
-3.28838485004e-04
4.86509077538e-04
-4.89649056372e-04
4.84292465503e-04
-5.44314403651e-04
4.25714260346e-04
-5.22336327609e-04
3.31367007362e-04
-4.31322460949e-04
2.02348486027e-04
-2.42179431986e-04
-5.94904547035e-05
-1.21483578672e-04
-8.94125106210e-05
-1.24720460373e-04
-1.22857197045e-04
-1.27138153543e-04
-1.51235306704e-04
-1.25454795770e-04
-1.75394737065e-04
-1.12732290774e-04
-1.87934983385e-04
-1.05249142071e-04
-5.90297516252e-04
4.50706994958e-04
-5.91495585213e-04
4.67375788594e-04
-5.75310996691e-04
4.53134769820e-04
-5.11849086148e-04
3.87987495627e-04
-3.48567832576e-04
2.84167913566e-04
8.42869949338e-05
-3.84242646958e-04
7.99914740417e-05
-3.79397377407e-04
7.96857114343e-05
-3.46602837628e-04
9.13896443206e-05
-2.90772595687e-04
-1.68339073096e-04
-1.27225832796e-04
-1.75285073191e-04
-1.36742263023e-04
-1.82460524967e-04
-1.44360557504e-04
-8.83746580290e-05
2.63619943527e-05
-8.78276539426e-05
2.12173263837e-05
-7.82378137157e-05
2.22920144654e-05
-7.43972977828e-05
2.45846431208e-05
-7.19082596276e-05
2.74863007570e-05
-7.02140414226e-05
3.13881338310e-05
-6.95215484326e-05
3.65313225115e-05
-6.95969233400e-05
4.50535741242e-05
-7.85091080948e-05
6.71682971332e-05
8.42869949338e-05
-3.84242646958e-04
7.99914740417e-05
-3.79397377407e-04
7.96857114343e-05
-3.46602837628e-04
9.13896443206e-05
-2.90772595687e-04
-1.68339073096e-04
-1.27225832796e-04
-1.75285073191e-04
-1.36742263023e-04
-1.82460524967e-04
-1.44360557504e-04
-2.73208265628e-04
1.25591789299e-04
-2.81817254808e-04
1.25362609082e-04
-2.95826075350e-04
1.40571911087e-04
-2.97270092485e-04
1.71947060513e-04
-2.86800436217e-04
2.06363503405e-04
-2.72565904011e-04
2.17195387554e-04
-2.65810703038e-04
2.08741957310e-04
-2.58739975406e-04
1.96391414510e-04
-2.26327171900e-04
1.78111371108e-04
-4.46883633061e-05
-9.34458489265e-05
-8.45294768566e-05
-1.25281293989e-04
-1.23028629279e-04
-1.39354931422e-04
-1.53394926483e-04
-1.45191382485e-04
-1.76253776482e-04
-1.47222467350e-04
-1.93391645042e-04
-1.49264719641e-04
-2.05019350030e-04
-1.47067885138e-04
-4.81983484142e-04
3.60239082436e-04
-4.88143081443e-04
3.88051597303e-04
-4.73418243733e-04
4.19876333478e-04
-4.17353040017e-04
4.37429765260e-04
-3.09358312406e-04
4.24710510644e-04
-3.95776863690e-05
9.59335255168e-06
-5.60502124583e-05
2.26230061065e-05
-6.54721489953e-05
2.40426707000e-05
-7.24449077510e-05
2.51514109242e-05
-8.15719673038e-05
2.79511804868e-05
-2.74789406712e-04
1.32274796701e-04
-2.80045377204e-04
1.34437488546e-04
-4.81983484142e-04
3.60239082436e-04
-4.88143081443e-04
3.88051597303e-04
-4.73418243733e-04
4.19876333478e-04
-4.17353040017e-04
4.37429765260e-04
-3.22013630320e-04
4.09548316202e-04
-2.63151586416e-04
1.93502028791e-04
-2.66022135789e-04
1.54073895337e-04
-2.76831758454e-04
1.28362865891e-04
-2.83163781119e-04
1.21929985621e-04
-2.84621113042e-04
1.25177597292e-04
-2.83511069796e-04
1.32455809927e-04
-2.05789161181e-04
-1.43277738365e-04
-2.01349893069e-04
-1.33866843738e-04
-1.98466238166e-04
-1.21124739849e-04
-1.94948202761e-04
-1.07550315661e-04
1.93892860670e-04
-4.40696033372e-04
1.26214007956e-04
-4.35542607730e-04
8.96816119475e-05
-3.92363686580e-04
8.43011255775e-05
-3.52487793127e-04
1.12090417923e-04
-2.78415355261e-04
-3.19192360842e-04
2.54218594688e-04
-3.43525679142e-04
2.72711503291e-04
-3.72359438401e-04
2.90630375700e-04
-4.01443618981e-04
3.06630996135e-04
-4.29844468453e-04
3.21226119937e-04
-4.60635229891e-04
3.36965997717e-04
-4.86936205805e-04
3.57875404165e-04
-5.18126326029e-04
3.74208238091e-04
-5.48440586550e-04
3.87843392013e-04
-5.72512744621e-04
4.04887195082e-04
4.27286762457e-04
-4.85977253300e-04
4.76353592380e-04
-5.03473892166e-04
5.15240621673e-04
-4.41873509653e-04
5.11219076305e-04
-3.45268193799e-04
4.48782314238e-04
-2.14786906023e-04

</DataArray>
</CellData>
</Piece>
</UnstructuredGrid>
</VTKFile>
