<?xml version="1.0"?>
<VTKFile type="UnstructuredGrid" version="0.1" byte_order="LittleEndian">
<!--This file was created by meshio v5.3.5-->
<UnstructuredGrid>
<Piece NumberOfPoints="82" NumberOfCells="128">
<Points>
<DataArray type="Float64" Name="Points" NumberOfComponents="3" format="ascii">
-3.62777204087e+01
5.93338573254e+02
-3.00000000000e+03
-8.19500009019e+01
7.40929074508e+02
-2.82410848990e+03
-2.12013651697e+02
8.66050259858e+02
-2.67499486775e+03
-4.06667660990e+02
9.49653563059e+02
-2.57536033081e+03
-6.36277720409e+02
9.79011139066e+02
-2.54037333413e+03
-8.65887779828e+02
9.49653563059e+02
-2.57536033081e+03
-1.06054178912e+03
8.66050259858e+02
-2.67499486775e+03
-1.19060543992e+03
7.40929074508e+02
-2.82410848990e+03
-1.23627772041e+03
5.93338573254e+02
-3.00000000000e+03
-1.19060543992e+03
4.45748072000e+02
-3.17589151010e+03
-1.06054178912e+03
3.20626886651e+02
-3.32500513225e+03
-8.65887779828e+02
2.37023583450e+02
-3.42463966919e+03
-6.36277720409e+02
2.07666007442e+02
-3.45962666587e+03
-4.06667660990e+02
2.37023583450e+02
-3.42463966919e+03
-2.12013651697e+02
3.20626886651e+02
-3.32500513225e+03
-8.19500009019e+01
4.45748072000e+02
-3.17589151010e+03
-9.82301878795e+02
6.57836979237e+02
-2.92313379295e+03
-2.35388105079e+02
5.41264947208e+02
-3.06205893092e+03
-5.69871316028e+02
8.40374504474e+02
-2.70559404147e+03
-7.11529394962e+02
3.50161918889e+02
-3.28980665147e+03
-4.01907468113e+02
3.68697219987e+02
-3.26771713980e+03
-3.01147993968e+02
7.32392613644e+02
-2.83428184780e+03
-8.72831799617e+02
8.02387168171e+02
-2.75086558598e+03
-9.56998297522e+02
4.55590063739e+02
-3.16416228109e+03
-3.83495241035e+02
8.36515227620e+02
-2.71019334853e+03
-5.24957334276e+02
6.99549662937e+02
-2.87342255230e+03
-3.68806365849e+02
6.08303991849e+02
-2.98216490863e+03
-5.60624169490e+02
5.42627281744e+02
-3.06043536384e+03
-7.57039155452e+02
6.08228297855e+02
-2.98225511721e+03
-7.59403827432e+02
4.72412129709e+02
-3.14411452353e+03
-7.22504460330e+02
7.28377464595e+02
-2.83906691610e+03
-2.64377961448e+02
4.33055503539e+02
-3.19101792417e+03
-8.89060199783e+02
3.50161918889e+02
-3.28980665147e+03
-7.33474615242e+02
8.59960767873e+02
-2.68225204170e+03
-1.02657022686e+03
7.66800870444e+02
-2.79327568415e+03
-1.06255581105e+03
5.40549452857e+02
-3.06291162388e+03
-1.90023907337e+02
6.50395874092e+02
-2.93200175674e+03
-5.47512317998e+02
3.06492151437e+02
-3.34185025372e+03
-5.83826678727e+02
4.23842427026e+02
-3.20199764120e+03
-9.03659794049e+02
5.46923384679e+02
-3.05531546774e+03
-4.02488458118e+02
4.86298561892e+02
-3.12756531809e+03
1.39247167980e+02
4.29658966839e+02
-3.00000000000e+03
9.35748874867e+01
5.77249468093e+02
-2.82410848990e+03
-3.64887633081e+01
7.02370653443e+02
-2.67499486775e+03
-2.31142772601e+02
7.85973956644e+02
-2.57536033081e+03
-4.60752832020e+02
8.15331532651e+02
-2.54037333413e+03
-6.90362891439e+02
7.85973956644e+02
-2.57536033081e+03
-8.85016900732e+02
7.02370653443e+02
-2.67499486775e+03
-1.01508055153e+03
5.77249468093e+02
-2.82410848990e+03
-1.06075283202e+03
4.29658966839e+02
-3.00000000000e+03
-1.01508055153e+03
2.82068465585e+02
-3.17589151010e+03
-8.85016900732e+02
1.56947280236e+02
-3.32500513225e+03
-6.90362891439e+02
7.33439770346e+01
-3.42463966919e+03
-4.60752832020e+02
4.39864010275e+01
-3.45962666587e+03
-2.31142772601e+02
7.33439770346e+01
-3.42463966919e+03
-3.64887633081e+01
1.56947280236e+02
-3.32500513225e+03
9.35748874867e+01
2.82068465585e+02
-3.17589151010e+03
-3.85501157466e+02
1.86482312474e+02
-3.28980665147e+03
-5.42147648576e+02
6.95030235725e+02
-2.68374283693e+03
-8.39068547352e+02
3.81288122828e+02
-3.05764612713e+03
-7.08121434506e+01
4.83655900143e+02
-2.93564896075e+03
-7.81473409133e+02
5.67407476355e+02
-2.83583771891e+03
-6.34476559427e+02
2.26776986862e+02
-3.24178532851e+03
-2.34565328910e+02
6.48692719502e+02
-2.73896573837e+03
-1.42041358264e+02
2.85161188911e+02
-3.17220574597e+03
-1.44990189488e+01
3.72601666001e+02
-3.06799824326e+03
-2.65198556211e+02
4.05153668847e+02
-3.02920427692e+03
-2.55159122143e+02
5.40647758235e+02
-2.86772870912e+03
-4.63043301905e+02
4.99903277397e+02
-2.91628609053e+03
-5.29764428503e+02
3.64241917225e+02
-3.07796100389e+03
-6.80842827495e+02
4.59203661243e+02
-2.96479000430e+03
-3.76782071951e+02
3.02472868463e+02
-3.15157448967e+03
-8.24371166880e+01
5.92144412527e+02
-2.80635738636e+03
-7.13535311394e+02
6.72835621205e+02
-2.71019334853e+03
-3.74101443840e+02
7.12031896534e+02
-2.66348104659e+03
-9.07006645091e+02
4.86716267677e+02
-2.93200175674e+03
-8.20248311744e+02
2.73234816746e+02
-3.18641904284e+03
-2.26842404126e+02
1.96767464581e+02
-3.27754928450e+03
-5.42773360088e+02
1.32647419350e+02
-3.35396457876e+03
-6.10120761438e+02
5.73350861291e+02
-2.82875466856e+03
-7.00880134904e+02
3.40949100981e+02
-3.10572030134e+03
-4.13189601135e+02
6.11609458114e+02
-2.78315984835e+03

</DataArray>
</Points>
<Cells>
<DataArray type="Int64" Name="connectivity" format="ascii">
0
1
36
0
15
17
0
17
36
1
2
21
1
21
36
2
3
24
2
21
24
3
4
18
3
18
24
4
5
33
4
18
33
5
6
22
5
22
33
6
7
34
6
22
34
7
8
16
7
16
34
8
9
35
8
16
35
9
10
23
9
23
35
10
11
32
10
23
32
11
12
19
11
19
32
12
13
37
12
19
37
13
14
20
13
20
37
14
15
31
14
20
31
15
17
31
16
22
30
16
22
34
16
28
30
16
28
39
16
35
39
17
26
36
17
26
40
17
31
40
18
24
25
18
25
30
18
30
33
19
29
32
19
29
38
19
37
38
20
31
40
20
37
38
20
38
40
21
24
25
21
25
26
21
26
36
22
30
33
23
29
32
23
29
39
23
35
39
25
26
27
25
27
28
25
28
30
26
27
40
27
28
29
27
29
38
27
38
40
28
29
39
41
42
60
41
56
65
41
60
65
42
43
72
42
60
72
43
44
63
43
63
72
44
45
74
44
63
74
45
46
58
45
58
74
46
47
73
46
58
73
47
48
61
47
61
73
48
49
75
48
61
75
49
50
59
49
59
75
50
51
76
50
59
76
51
52
62
51
62
76
52
53
78
52
62
78
53
54
57
53
57
78
54
55
77
54
57
77
55
56
64
55
64
77
56
64
65
57
62
71
57
62
78
57
71
77
58
73
79
58
74
81
58
79
81
59
70
75
59
70
80
59
76
80
60
65
66
60
66
67
60
67
72
61
70
75
61
70
79
61
73
79
62
69
71
62
69
80
62
76
80
63
67
72
63
67
81
63
74
81
64
65
66
64
66
71
64
71
77
66
67
68
66
68
69
66
69
71
67
68
81
68
69
70
68
70
79
68
79
81
69
70
80

</DataArray>
<DataArray type="Int64" Name="offsets" format="ascii">
3
6
9
12
15
18
21
24
27
30
33
36
39
42
45
48
51
54
57
60
63
66
69
72
75
78
81
84
87
90
93
96
99
102
105
108
111
114
117
120
123
126
129
132
135
138
141
144
147
150
153
156
159
162
165
168
171
174
177
180
183
186
189
192
195
198
201
204
207
210
213
216
219
222
225
228
231
234
237
240
243
246
249
252
255
258
261
264
267
270
273
276
279
282
285
288
291
294
297
300
303
306
309
312
315
318
321
324
327
330
333
336
339
342
345
348
351
354
357
360
363
366
369
372
375
378
381
384

</DataArray>
<DataArray type="Int64" Name="types" format="ascii">
5
5
5
5
5
5
5
5
5
5
5
5
5
5
5
5
5
5
5
5
5
5
5
5
5
5
5
5
5
5
5
5
5
5
5
5
5
5
5
5
5
5
5
5
5
5
5
5
5
5
5
5
5
5
5
5
5
5
5
5
5
5
5
5
5
5
5
5
5
5
5
5
5
5
5
5
5
5
5
5
5
5
5
5
5
5
5
5
5
5
5
5
5
5
5
5
5
5
5
5
5
5
5
5
5
5
5
5
5
5
5
5
5
5
5
5
5
5
5
5
5
5
5
5
5
5
5
5

</DataArray>
</Cells>
<PointData>
<DataArray type="Int64" Name="node_id" format="ascii">
0
1
2
3
4
5
6
7
8
9
10
11
12
13
14
15
16
17
18
19
20
21
22
23
24
25
26
27
28
29
30
31
32
33
34
35
36
37
38
39
40
0
1
2
3
4
5
6
7
8
9
10
11
12
13
14
15
16
17
18
19
20
21
22
23
24
25
26
27
28
29
30
31
32
33
34
35
36
37
38
39
40

</DataArray>
</PointData>
<CellData>
<DataArray type="Float64" Name="aperture" format="ascii">
1.02549895322e-03
1.02859168931e-03
1.03546506574e-03
1.01396049042e-03
1.03416943898e-03
1.02136058327e-03
1.01989146532e-03
1.04407570974e-03
1.03094495630e-03
1.05947266606e-03
1.05083642659e-03
1.04887265454e-03
1.05163885395e-03
1.05415362183e-03
1.05655945924e-03
1.05153668613e-03
1.05017159222e-03
1.04453555993e-03
1.05290142375e-03
1.03518544416e-03
1.04738128903e-03
1.03162210790e-03
1.03939292536e-03
1.03496310468e-03
1.03465279901e-03
1.02286152225e-03
1.03706102046e-03
1.03397901475e-03
1.03669327593e-03
1.03870471846e-03
1.03866014491e-03
1.03372593821e-03
1.06457210965e-03
1.05467429007e-03
1.06777417556e-03
1.06635822335e-03
1.05854797141e-03
1.05184949278e-03
1.06243773538e-03
1.04958631354e-03
1.04005302467e-03
1.05141532349e-03
1.04845000129e-03
1.05170795869e-03
1.05309145887e-03
1.04282103032e-03
1.04487789293e-03
1.04183584249e-03
1.04945037158e-03
1.04012222619e-03
1.05380124038e-03
1.05105688167e-03
1.04905055045e-03
1.05173271794e-03
1.05175306808e-03
1.05010007901e-03
1.06855615321e-03
1.06745777360e-03
1.06648146141e-03
1.06801792808e-03
1.06570961577e-03
1.06157826643e-03
1.06201423542e-03
1.06185195851e-03
1.02697602394e-03
1.02123007177e-03
1.02374343270e-03
1.03292375854e-03
1.03198444944e-03
1.04060281644e-03
1.04427296166e-03
1.03441656199e-03
1.04005120890e-03
1.02882941559e-03
1.03481210773e-03
1.01383940170e-03
1.02154404573e-03
1.00855521580e-03
1.01161647787e-03
1.00748539140e-03
1.01055379220e-03
1.00728792986e-03
1.00952618912e-03
1.00717413726e-03
1.00891432477e-03
1.00913754551e-03
1.01005877370e-03
1.01192553787e-03
1.01207540346e-03
1.01700361546e-03
1.01522695252e-03
1.01706829791e-03
1.01818145766e-03
1.01933760599e-03
1.02006249980e-03
1.02093551940e-03
1.01614330190e-03
1.01490585192e-03
1.01778224921e-03
1.01558581534e-03
1.02590338326e-03
1.01820002424e-03
1.01261784505e-03
1.01339670332e-03
1.01242721274e-03
1.02136632270e-03
1.02075531723e-03
1.02383602400e-03
1.01326003784e-03
1.01512976352e-03
1.01604921733e-03
1.01683523943e-03
1.01548381453e-03
1.01382294514e-03
1.02970522359e-03
1.02756154515e-03
1.03789091890e-03
1.02155523480e-03
1.01998296726e-03
1.01923852795e-03
1.01963013910e-03
1.01901217405e-03
1.01957819698e-03
1.02263262088e-03
1.01654578041e-03
1.01634096923e-03
1.01786827702e-03
1.01535109589e-03

</DataArray>
<DataArray type="Int64" Name="cell_id" format="ascii">
0
1
2
3
4
5
6
7
8
9
10
11
12
13
14
15
16
17
18
19
20
21
22
23
24
25
26
27
28
29
30
31
32
33
34
35
36
37
38
39
40
41
42
43
44
45
46
47
48
49
50
51
52
53
54
55
56
57
58
59
60
61
62
63
0
1
2
3
4
5
6
7
8
9
10
11
12
13
14
15
16
17
18
19
20
21
22
23
24
25
26
27
28
29
30
31
32
33
34
35
36
37
38
39
40
41
42
43
44
45
46
47
48
49
50
51
52
53
54
55
56
57
58
59
60
61
62
63

</DataArray>
<DataArray type="Float64" Name="contact_traction" NumberOfComponents="3" format="ascii">
0.00000000000e+00
0.00000000000e+00
0.00000000000e+00
0.00000000000e+00
0.00000000000e+00
0.00000000000e+00
0.00000000000e+00
0.00000000000e+00
0.00000000000e+00
0.00000000000e+00
0.00000000000e+00
0.00000000000e+00
0.00000000000e+00
0.00000000000e+00
0.00000000000e+00
0.00000000000e+00
0.00000000000e+00
0.00000000000e+00
0.00000000000e+00
0.00000000000e+00
0.00000000000e+00
0.00000000000e+00
0.00000000000e+00
0.00000000000e+00
0.00000000000e+00
0.00000000000e+00
0.00000000000e+00
0.00000000000e+00
0.00000000000e+00
0.00000000000e+00
0.00000000000e+00
0.00000000000e+00
0.00000000000e+00
0.00000000000e+00
0.00000000000e+00
0.00000000000e+00
0.00000000000e+00
0.00000000000e+00
0.00000000000e+00
0.00000000000e+00
0.00000000000e+00
0.00000000000e+00
0.00000000000e+00
0.00000000000e+00
0.00000000000e+00
0.00000000000e+00
0.00000000000e+00
0.00000000000e+00
0.00000000000e+00
0.00000000000e+00
0.00000000000e+00
0.00000000000e+00
0.00000000000e+00
0.00000000000e+00
0.00000000000e+00
0.00000000000e+00
0.00000000000e+00
0.00000000000e+00
0.00000000000e+00
0.00000000000e+00
0.00000000000e+00
0.00000000000e+00
0.00000000000e+00
0.00000000000e+00
0.00000000000e+00
0.00000000000e+00
0.00000000000e+00
0.00000000000e+00
0.00000000000e+00
0.00000000000e+00
0.00000000000e+00
0.00000000000e+00
0.00000000000e+00
0.00000000000e+00
0.00000000000e+00
0.00000000000e+00
0.00000000000e+00
0.00000000000e+00
0.00000000000e+00
0.00000000000e+00
0.00000000000e+00
0.00000000000e+00
0.00000000000e+00
0.00000000000e+00
0.00000000000e+00
0.00000000000e+00
0.00000000000e+00
0.00000000000e+00
0.00000000000e+00
0.00000000000e+00
0.00000000000e+00
0.00000000000e+00
0.00000000000e+00
0.00000000000e+00
0.00000000000e+00
0.00000000000e+00
0.00000000000e+00
0.00000000000e+00
0.00000000000e+00
0.00000000000e+00
0.00000000000e+00
0.00000000000e+00
0.00000000000e+00
0.00000000000e+00
0.00000000000e+00
0.00000000000e+00
0.00000000000e+00
0.00000000000e+00
0.00000000000e+00
0.00000000000e+00
0.00000000000e+00
0.00000000000e+00
0.00000000000e+00
0.00000000000e+00
0.00000000000e+00
0.00000000000e+00
0.00000000000e+00
0.00000000000e+00
0.00000000000e+00
0.00000000000e+00
0.00000000000e+00
0.00000000000e+00
0.00000000000e+00
0.00000000000e+00
0.00000000000e+00
0.00000000000e+00
0.00000000000e+00
0.00000000000e+00
0.00000000000e+00
0.00000000000e+00
0.00000000000e+00
0.00000000000e+00
0.00000000000e+00
0.00000000000e+00
0.00000000000e+00
0.00000000000e+00
0.00000000000e+00
0.00000000000e+00
0.00000000000e+00
0.00000000000e+00
0.00000000000e+00
0.00000000000e+00
0.00000000000e+00
0.00000000000e+00
0.00000000000e+00
0.00000000000e+00
0.00000000000e+00
0.00000000000e+00
0.00000000000e+00
0.00000000000e+00
0.00000000000e+00
0.00000000000e+00
0.00000000000e+00
0.00000000000e+00
0.00000000000e+00
0.00000000000e+00
0.00000000000e+00
0.00000000000e+00
0.00000000000e+00
0.00000000000e+00
0.00000000000e+00
0.00000000000e+00
0.00000000000e+00
0.00000000000e+00
0.00000000000e+00
0.00000000000e+00
0.00000000000e+00
0.00000000000e+00
0.00000000000e+00
0.00000000000e+00
0.00000000000e+00
0.00000000000e+00
0.00000000000e+00
0.00000000000e+00
0.00000000000e+00
0.00000000000e+00
0.00000000000e+00
0.00000000000e+00
0.00000000000e+00
0.00000000000e+00
0.00000000000e+00
0.00000000000e+00
0.00000000000e+00
0.00000000000e+00
0.00000000000e+00
0.00000000000e+00
0.00000000000e+00
0.00000000000e+00
0.00000000000e+00
0.00000000000e+00
0.00000000000e+00
0.00000000000e+00
0.00000000000e+00
0.00000000000e+00
0.00000000000e+00
0.00000000000e+00
0.00000000000e+00
0.00000000000e+00
0.00000000000e+00
0.00000000000e+00
0.00000000000e+00
0.00000000000e+00
0.00000000000e+00
0.00000000000e+00
0.00000000000e+00
0.00000000000e+00
0.00000000000e+00
0.00000000000e+00
0.00000000000e+00
0.00000000000e+00
0.00000000000e+00
0.00000000000e+00
0.00000000000e+00
0.00000000000e+00
0.00000000000e+00
0.00000000000e+00
0.00000000000e+00
0.00000000000e+00
0.00000000000e+00
0.00000000000e+00
0.00000000000e+00
0.00000000000e+00
0.00000000000e+00
0.00000000000e+00
0.00000000000e+00
0.00000000000e+00
0.00000000000e+00
0.00000000000e+00
0.00000000000e+00
0.00000000000e+00
0.00000000000e+00
0.00000000000e+00
0.00000000000e+00
0.00000000000e+00
0.00000000000e+00
0.00000000000e+00
0.00000000000e+00
-1.71120115967e-04
-2.09030713796e-04
-3.37675726008e-04
0.00000000000e+00
0.00000000000e+00
0.00000000000e+00
-2.35044745764e-04
-6.27109293034e-04
-8.37138072842e-04
-8.69048777950e-05
-1.08213989294e-04
-1.73487775431e-04
-1.61166183576e-04
-8.68622165305e-04
-1.10430903509e-03
-1.88927877064e-04
-8.44664743229e-04
-1.08191978618e-03
-3.95711883308e-05
-1.36942031811e-03
-1.71248991174e-03
-5.21682285809e-05
-8.97120952858e-04
-1.12329560344e-03
1.05763459005e-04
-7.38827715960e-04
-9.32949207429e-04
1.44285019339e-04
-1.38855467004e-03
-1.74503860921e-03
0.00000000000e+00
0.00000000000e+00
0.00000000000e+00
1.69957571854e-04
-8.23874211762e-04
-1.05152738094e-03
5.03277076552e-05
-2.52033292336e-04
-3.21261329089e-04
1.40464019447e-04
-6.05681363296e-04
-7.77194528620e-04
1.88947604228e-05
-1.03508245933e-04
-1.31523340060e-04
6.43185815471e-05
-2.78549214702e-04
-3.57348186611e-04
3.69316653874e-05
-2.22876248984e-04
-2.82394256397e-04
1.55127419746e-04
-1.14322474309e-03
-1.44212697169e-03
1.59977143705e-04
-1.17877942260e-03
-1.48698184970e-03
2.06747272647e-04
-1.14662472960e-03
-1.45639361163e-03
0.00000000000e+00
0.00000000000e+00
0.00000000000e+00
0.00000000000e+00
0.00000000000e+00
0.00000000000e+00
0.00000000000e+00
0.00000000000e+00
0.00000000000e+00
-1.13807049168e-04
-3.72931140359e-04
-4.87387295076e-04
-8.99103815871e-05
-5.60529539636e-04
-7.79057113003e-04
-9.65971827708e-05
-6.46712126604e-04
-8.17358158964e-04
9.33712183663e-05
-3.27262392384e-04
-4.25402122057e-04
7.90772123872e-05
-2.60498248686e-04
-3.40295237366e-04
0.00000000000e+00
0.00000000000e+00
0.00000000000e+00
0.00000000000e+00
0.00000000000e+00
0.00000000000e+00
-1.64942507300e-05
-4.41469495562e-05
-5.89095368747e-05
0.00000000000e+00
0.00000000000e+00
0.00000000000e+00
6.31230171076e-05
-5.03085397064e-04
-6.33787513716e-04
9.01200509394e-06
-4.47508907765e-04
-5.59499551448e-04
-3.75139787830e-05
-4.55370903870e-04
-5.71141891706e-04
0.00000000000e+00
0.00000000000e+00
0.00000000000e+00
0.00000000000e+00
0.00000000000e+00
0.00000000000e+00
0.00000000000e+00
0.00000000000e+00
0.00000000000e+00
1.10068573708e-04
-5.49130906948e-04
-7.00066786863e-04
1.69330197773e-04
-6.09308127884e-04
-7.90499358182e-04
2.26965299904e-04
-1.03504480467e-03
-1.32454649965e-03
9.88121130539e-05
-3.31430126177e-04
-4.32308053909e-04
1.09744355152e-04
-5.47369688741e-04
-6.97828551249e-04
9.29137152027e-05
-3.29019025649e-04
-4.27358305669e-04
0.00000000000e+00
0.00000000000e+00
0.00000000000e+00
-1.82776914752e-05
-6.36008269129e-04
-7.95338560385e-04
-1.41454960460e-05
-9.98807427685e-05
-1.26096799587e-04
0.00000000000e+00
0.00000000000e+00
0.00000000000e+00
-4.02112098836e-05
-5.55533757343e-04
-7.80932799659e-04

</DataArray>
<DataArray type="Int64" Name="grid_dim" format="ascii">
2
2
2
2
2
2
2
2
2
2
2
2
2
2
2
2
2
2
2
2
2
2
2
2
2
2
2
2
2
2
2
2
2
2
2
2
2
2
2
2
2
2
2
2
2
2
2
2
2
2
2
2
2
2
2
2
2
2
2
2
2
2
2
2
2
2
2
2
2
2
2
2
2
2
2
2
2
2
2
2
2
2
2
2
2
2
2
2
2
2
2
2
2
2
2
2
2
2
2
2
2
2
2
2
2
2
2
2
2
2
2
2
2
2
2
2
2
2
2
2
2
2
2
2
2
2
2
2

</DataArray>
<DataArray type="Int64" Name="is_mortar" format="ascii">
0
0
0
0
0
0
0
0
0
0
0
0
0
0
0
0
0
0
0
0
0
0
0
0
0
0
0
0
0
0
0
0
0
0
0
0
0
0
0
0
0
0
0
0
0
0
0
0
0
0
0
0
0
0
0
0
0
0
0
0
0
0
0
0
0
0
0
0
0
0
0
0
0
0
0
0
0
0
0
0
0
0
0
0
0
0
0
0
0
0
0
0
0
0
0
0
0
0
0
0
0
0
0
0
0
0
0
0
0
0
0
0
0
0
0
0
0
0
0
0
0
0
0
0
0
0
0
0

</DataArray>
<DataArray type="Int64" Name="mortar_side" format="ascii">
0
0
0
0
0
0
0
0
0
0
0
0
0
0
0
0
0
0
0
0
0
0
0
0
0
0
0
0
0
0
0
0
0
0
0
0
0
0
0
0
0
0
0
0
0
0
0
0
0
0
0
0
0
0
0
0
0
0
0
0
0
0
0
0
0
0
0
0
0
0
0
0
0
0
0
0
0
0
0
0
0
0
0
0
0
0
0
0
0
0
0
0
0
0
0
0
0
0
0
0
0
0
0
0
0
0
0
0
0
0
0
0
0
0
0
0
0
0
0
0
0
0
0
0
0
0
0
0

</DataArray>
<DataArray type="Float64" Name="pressure" format="ascii">
5.06341796958e+07
5.43500711673e+07
5.22001985735e+07
4.80379899636e+07
4.94554536093e+07
4.60190723100e+07
4.72497569272e+07
4.50610682867e+07
4.59026630715e+07
4.46711068391e+07
4.52883555440e+07
4.51700591021e+07
4.53248560650e+07
4.60420303965e+07
4.58767157191e+07
4.76113678498e+07
4.69358027388e+07
4.93667601309e+07
4.85284041080e+07
5.10693425529e+07
5.01000519729e+07
5.27994399228e+07
5.17402753699e+07
5.40212694520e+07
5.30622373335e+07
5.54079160142e+07
5.43166208219e+07
5.69244188019e+07
5.56092161204e+07
6.16247108662e+07
5.76756621561e+07
5.64736770940e+07
4.71710536479e+07
4.68148376325e+07
4.81825482994e+07
4.88766654273e+07
4.89373662735e+07
5.16784543964e+07
5.26779389363e+07
5.46235040805e+07
4.71117812554e+07
4.73914574826e+07
4.64199394102e+07
5.21844444063e+07
5.23704256659e+07
5.35676097627e+07
5.53464386711e+07
5.43267049757e+07
5.39786973844e+07
4.79583531358e+07
4.93802318468e+07
5.01229388848e+07
4.63961182221e+07
5.13840871133e+07
5.04708642617e+07
4.98663443361e+07
5.02258192492e+07
4.96224913127e+07
4.84334246490e+07
5.18644995829e+07
5.04776142903e+07
5.17380940233e+07
5.24845962701e+07
4.99924230875e+07
4.37674845714e+07
4.53110451088e+07
4.45812691289e+07
4.23418662308e+07
4.32004050254e+07
4.14062132648e+07
4.21417684981e+07
4.08073765296e+07
4.14369147133e+07
4.09447780568e+07
4.12130144967e+07
4.15049482564e+07
4.15273889122e+07
4.27477351705e+07
4.23740462872e+07
4.41193003236e+07
4.35939661643e+07
4.56584182038e+07
4.48826799061e+07
4.70804876295e+07
4.62529199288e+07
4.80022756638e+07
4.72875573329e+07
4.86911809188e+07
4.80662137882e+07
4.84117202869e+07
4.82529371597e+07
4.78851066327e+07
4.78399245146e+07
4.67277833094e+07
4.71064437271e+07
4.59199697424e+07
4.70505182796e+07
4.76509834369e+07
4.70963024637e+07
4.23766680450e+07
4.20272423617e+07
4.26077313880e+07
4.47870728310e+07
4.53508732469e+07
4.60449310811e+07
4.48253481259e+07
4.42529832083e+07
4.34594788195e+07
4.40683473290e+07
4.37357489409e+07
4.28893220805e+07
4.64242793937e+07
4.62899654396e+07
4.66213480835e+07
4.28475715314e+07
4.28434925707e+07
4.21724952463e+07
4.56017814732e+07
4.59703432671e+07
4.67032806093e+07
4.42762833035e+07
4.50020279408e+07
4.57380746732e+07
4.34781132447e+07
4.48143709450e+07
4.39999195147e+07
4.33830458817e+07
4.54219859862e+07

</DataArray>
<DataArray type="Float64" Name="specific_volume" format="ascii">
1.02549895322e-03
1.02859168931e-03
1.03546506574e-03
1.01396049042e-03
1.03416943898e-03
1.02136058327e-03
1.01989146532e-03
1.04407570974e-03
1.03094495630e-03
1.05947266606e-03
1.05083642659e-03
1.04887265454e-03
1.05163885395e-03
1.05415362183e-03
1.05655945924e-03
1.05153668613e-03
1.05017159222e-03
1.04453555993e-03
1.05290142375e-03
1.03518544416e-03
1.04738128903e-03
1.03162210790e-03
1.03939292536e-03
1.03496310468e-03
1.03465279901e-03
1.02286152225e-03
1.03706102046e-03
1.03397901475e-03
1.03669327593e-03
1.03870471846e-03
1.03866014491e-03
1.03372593821e-03
1.06457210965e-03
1.05467429007e-03
1.06777417556e-03
1.06635822335e-03
1.05854797141e-03
1.05184949278e-03
1.06243773538e-03
1.04958631354e-03
1.04005302467e-03
1.05141532349e-03
1.04845000129e-03
1.05170795869e-03
1.05309145887e-03
1.04282103032e-03
1.04487789293e-03
1.04183584249e-03
1.04945037158e-03
1.04012222619e-03
1.05380124038e-03
1.05105688167e-03
1.04905055045e-03
1.05173271794e-03
1.05175306808e-03
1.05010007901e-03
1.06855615321e-03
1.06745777360e-03
1.06648146141e-03
1.06801792808e-03
1.06570961577e-03
1.06157826643e-03
1.06201423542e-03
1.06185195851e-03
1.02697602394e-03
1.02123007177e-03
1.02374343270e-03
1.03292375854e-03
1.03198444944e-03
1.04060281644e-03
1.04427296166e-03
1.03441656199e-03
1.04005120890e-03
1.02882941559e-03
1.03481210773e-03
1.01383940170e-03
1.02154404573e-03
1.00855521580e-03
1.01161647787e-03
1.00748539140e-03
1.01055379220e-03
1.00728792986e-03
1.00952618912e-03
1.00717413726e-03
1.00891432477e-03
1.00913754551e-03
1.01005877370e-03
1.01192553787e-03
1.01207540346e-03
1.01700361546e-03
1.01522695252e-03
1.01706829791e-03
1.01818145766e-03
1.01933760599e-03
1.02006249980e-03
1.02093551940e-03
1.01614330190e-03
1.01490585192e-03
1.01778224921e-03
1.01558581534e-03
1.02590338326e-03
1.01820002424e-03
1.01261784505e-03
1.01339670332e-03
1.01242721274e-03
1.02136632270e-03
1.02075531723e-03
1.02383602400e-03
1.01326003784e-03
1.01512976352e-03
1.01604921733e-03
1.01683523943e-03
1.01548381453e-03
1.01382294514e-03
1.02970522359e-03
1.02756154515e-03
1.03789091890e-03
1.02155523480e-03
1.01998296726e-03
1.01923852795e-03
1.01963013910e-03
1.01901217405e-03
1.01957819698e-03
1.02263262088e-03
1.01654578041e-03
1.01634096923e-03
1.01786827702e-03
1.01535109589e-03

</DataArray>
<DataArray type="Int64" Name="states" format="ascii">
2
2
2
2
2
2
2
2
2
2
2
2
2
2
2
2
2
2
2
2
2
2
2
2
2
2
2
2
2
2
2
2
2
2
2
2
2
2
2
2
2
2
2
2
2
2
2
2
2
2
2
2
2
2
2
2
2
2
2
2
2
2
2
2
2
2
2
2
2
2
2
2
2
2
2
2
2
2
2
1
2
1
1
1
1
1
1
1
1
2
1
1
1
1
1
1
1
1
1
2
2
2
0
0
1
1
1
2
2
1
2
1
1
1
2
2
2
1
1
1
1
1
1
2
1
1
2
0

</DataArray>
<DataArray type="Int64" Name="subdomain_id" format="ascii">
5
5
5
5
5
5
5
5
5
5
5
5
5
5
5
5
5
5
5
5
5
5
5
5
5
5
5
5
5
5
5
5
5
5
5
5
5
5
5
5
5
5
5
5
5
5
5
5
5
5
5
5
5
5
5
5
5
5
5
5
5
5
5
5
6
6
6
6
6
6
6
6
6
6
6
6
6
6
6
6
6
6
6
6
6
6
6
6
6
6
6
6
6
6
6
6
6
6
6
6
6
6
6
6
6
6
6
6
6
6
6
6
6
6
6
6
6
6
6
6
6
6
6
6
6
6
6
6

</DataArray>
</CellData>
</Piece>
</UnstructuredGrid>
</VTKFile>
