<?xml version="1.0"?>
<VTKFile type="UnstructuredGrid" version="0.1" byte_order="LittleEndian">
<!--This file was created by meshio v5.3.5-->
<UnstructuredGrid>
<Piece NumberOfPoints="82" NumberOfCells="128">
<Points>
<DataArray type="Float64" Name="Points" NumberOfComponents="3" format="ascii">
-3.62777204087e+01
5.93338573254e+02
-3.00000000000e+03
-8.19500009019e+01
7.40929074508e+02
-2.82410848990e+03
-2.12013651697e+02
8.66050259858e+02
-2.67499486775e+03
-4.06667660990e+02
9.49653563059e+02
-2.57536033081e+03
-6.36277720409e+02
9.79011139066e+02
-2.54037333413e+03
-8.65887779828e+02
9.49653563059e+02
-2.57536033081e+03
-1.06054178912e+03
8.66050259858e+02
-2.67499486775e+03
-1.19060543992e+03
7.40929074508e+02
-2.82410848990e+03
-1.23627772041e+03
5.93338573254e+02
-3.00000000000e+03
-1.19060543992e+03
4.45748072000e+02
-3.17589151010e+03
-1.06054178912e+03
3.20626886651e+02
-3.32500513225e+03
-8.65887779828e+02
2.37023583450e+02
-3.42463966919e+03
-6.36277720409e+02
2.07666007442e+02
-3.45962666587e+03
-4.06667660990e+02
2.37023583450e+02
-3.42463966919e+03
-2.12013651697e+02
3.20626886651e+02
-3.32500513225e+03
-8.19500009019e+01
4.45748072000e+02
-3.17589151010e+03
-9.82301878795e+02
6.57836979237e+02
-2.92313379295e+03
-2.35388105079e+02
5.41264947208e+02
-3.06205893092e+03
-5.69871316028e+02
8.40374504474e+02
-2.70559404147e+03
-7.11529394962e+02
3.50161918889e+02
-3.28980665147e+03
-4.01907468113e+02
3.68697219987e+02
-3.26771713980e+03
-3.01147993968e+02
7.32392613644e+02
-2.83428184780e+03
-8.72831799617e+02
8.02387168171e+02
-2.75086558598e+03
-9.56998297522e+02
4.55590063739e+02
-3.16416228109e+03
-3.83495241035e+02
8.36515227620e+02
-2.71019334853e+03
-5.24957334276e+02
6.99549662937e+02
-2.87342255230e+03
-3.68806365849e+02
6.08303991849e+02
-2.98216490863e+03
-5.60624169490e+02
5.42627281744e+02
-3.06043536384e+03
-7.57039155452e+02
6.08228297855e+02
-2.98225511721e+03
-7.59403827432e+02
4.72412129709e+02
-3.14411452353e+03
-7.22504460330e+02
7.28377464595e+02
-2.83906691610e+03
-2.64377961448e+02
4.33055503539e+02
-3.19101792417e+03
-8.89060199783e+02
3.50161918889e+02
-3.28980665147e+03
-7.33474615242e+02
8.59960767873e+02
-2.68225204170e+03
-1.02657022686e+03
7.66800870444e+02
-2.79327568415e+03
-1.06255581105e+03
5.40549452857e+02
-3.06291162388e+03
-1.90023907337e+02
6.50395874092e+02
-2.93200175674e+03
-5.47512317998e+02
3.06492151437e+02
-3.34185025372e+03
-5.83826678727e+02
4.23842427026e+02
-3.20199764120e+03
-9.03659794049e+02
5.46923384679e+02
-3.05531546774e+03
-4.02488458118e+02
4.86298561892e+02
-3.12756531809e+03
1.39247167980e+02
4.29658966839e+02
-3.00000000000e+03
9.35748874867e+01
5.77249468093e+02
-2.82410848990e+03
-3.64887633081e+01
7.02370653443e+02
-2.67499486775e+03
-2.31142772601e+02
7.85973956644e+02
-2.57536033081e+03
-4.60752832020e+02
8.15331532651e+02
-2.54037333413e+03
-6.90362891439e+02
7.85973956644e+02
-2.57536033081e+03
-8.85016900732e+02
7.02370653443e+02
-2.67499486775e+03
-1.01508055153e+03
5.77249468093e+02
-2.82410848990e+03
-1.06075283202e+03
4.29658966839e+02
-3.00000000000e+03
-1.01508055153e+03
2.82068465585e+02
-3.17589151010e+03
-8.85016900732e+02
1.56947280236e+02
-3.32500513225e+03
-6.90362891439e+02
7.33439770346e+01
-3.42463966919e+03
-4.60752832020e+02
4.39864010275e+01
-3.45962666587e+03
-2.31142772601e+02
7.33439770346e+01
-3.42463966919e+03
-3.64887633081e+01
1.56947280236e+02
-3.32500513225e+03
9.35748874867e+01
2.82068465585e+02
-3.17589151010e+03
-3.85501157466e+02
1.86482312474e+02
-3.28980665147e+03
-5.42147648576e+02
6.95030235725e+02
-2.68374283693e+03
-8.39068547352e+02
3.81288122828e+02
-3.05764612713e+03
-7.08121434506e+01
4.83655900143e+02
-2.93564896075e+03
-7.81473409133e+02
5.67407476355e+02
-2.83583771891e+03
-6.34476559427e+02
2.26776986862e+02
-3.24178532851e+03
-2.34565328910e+02
6.48692719502e+02
-2.73896573837e+03
-1.42041358264e+02
2.85161188911e+02
-3.17220574597e+03
-1.44990189488e+01
3.72601666001e+02
-3.06799824326e+03
-2.65198556211e+02
4.05153668847e+02
-3.02920427692e+03
-2.55159122143e+02
5.40647758235e+02
-2.86772870912e+03
-4.63043301905e+02
4.99903277397e+02
-2.91628609053e+03
-5.29764428503e+02
3.64241917225e+02
-3.07796100389e+03
-6.80842827495e+02
4.59203661243e+02
-2.96479000430e+03
-3.76782071951e+02
3.02472868463e+02
-3.15157448967e+03
-8.24371166880e+01
5.92144412527e+02
-2.80635738636e+03
-7.13535311394e+02
6.72835621205e+02
-2.71019334853e+03
-3.74101443840e+02
7.12031896534e+02
-2.66348104659e+03
-9.07006645091e+02
4.86716267677e+02
-2.93200175674e+03
-8.20248311744e+02
2.73234816746e+02
-3.18641904284e+03
-2.26842404126e+02
1.96767464581e+02
-3.27754928450e+03
-5.42773360088e+02
1.32647419350e+02
-3.35396457876e+03
-6.10120761438e+02
5.73350861291e+02
-2.82875466856e+03
-7.00880134904e+02
3.40949100981e+02
-3.10572030134e+03
-4.13189601135e+02
6.11609458114e+02
-2.78315984835e+03

</DataArray>
</Points>
<Cells>
<DataArray type="Int64" Name="connectivity" format="ascii">
0
1
36
0
15
17
0
17
36
1
2
21
1
21
36
2
3
24
2
21
24
3
4
18
3
18
24
4
5
33
4
18
33
5
6
22
5
22
33
6
7
34
6
22
34
7
8
16
7
16
34
8
9
35
8
16
35
9
10
23
9
23
35
10
11
32
10
23
32
11
12
19
11
19
32
12
13
37
12
19
37
13
14
20
13
20
37
14
15
31
14
20
31
15
17
31
16
22
30
16
22
34
16
28
30
16
28
39
16
35
39
17
26
36
17
26
40
17
31
40
18
24
25
18
25
30
18
30
33
19
29
32
19
29
38
19
37
38
20
31
40
20
37
38
20
38
40
21
24
25
21
25
26
21
26
36
22
30
33
23
29
32
23
29
39
23
35
39
25
26
27
25
27
28
25
28
30
26
27
40
27
28
29
27
29
38
27
38
40
28
29
39
41
42
60
41
56
65
41
60
65
42
43
72
42
60
72
43
44
63
43
63
72
44
45
74
44
63
74
45
46
58
45
58
74
46
47
73
46
58
73
47
48
61
47
61
73
48
49
75
48
61
75
49
50
59
49
59
75
50
51
76
50
59
76
51
52
62
51
62
76
52
53
78
52
62
78
53
54
57
53
57
78
54
55
77
54
57
77
55
56
64
55
64
77
56
64
65
57
62
71
57
62
78
57
71
77
58
73
79
58
74
81
58
79
81
59
70
75
59
70
80
59
76
80
60
65
66
60
66
67
60
67
72
61
70
75
61
70
79
61
73
79
62
69
71
62
69
80
62
76
80
63
67
72
63
67
81
63
74
81
64
65
66
64
66
71
64
71
77
66
67
68
66
68
69
66
69
71
67
68
81
68
69
70
68
70
79
68
79
81
69
70
80

</DataArray>
<DataArray type="Int64" Name="offsets" format="ascii">
3
6
9
12
15
18
21
24
27
30
33
36
39
42
45
48
51
54
57
60
63
66
69
72
75
78
81
84
87
90
93
96
99
102
105
108
111
114
117
120
123
126
129
132
135
138
141
144
147
150
153
156
159
162
165
168
171
174
177
180
183
186
189
192
195
198
201
204
207
210
213
216
219
222
225
228
231
234
237
240
243
246
249
252
255
258
261
264
267
270
273
276
279
282
285
288
291
294
297
300
303
306
309
312
315
318
321
324
327
330
333
336
339
342
345
348
351
354
357
360
363
366
369
372
375
378
381
384

</DataArray>
<DataArray type="Int64" Name="types" format="ascii">
5
5
5
5
5
5
5
5
5
5
5
5
5
5
5
5
5
5
5
5
5
5
5
5
5
5
5
5
5
5
5
5
5
5
5
5
5
5
5
5
5
5
5
5
5
5
5
5
5
5
5
5
5
5
5
5
5
5
5
5
5
5
5
5
5
5
5
5
5
5
5
5
5
5
5
5
5
5
5
5
5
5
5
5
5
5
5
5
5
5
5
5
5
5
5
5
5
5
5
5
5
5
5
5
5
5
5
5
5
5
5
5
5
5
5
5
5
5
5
5
5
5
5
5
5
5
5
5

</DataArray>
</Cells>
<PointData>
<DataArray type="Int64" Name="node_id" format="ascii">
0
1
2
3
4
5
6
7
8
9
10
11
12
13
14
15
16
17
18
19
20
21
22
23
24
25
26
27
28
29
30
31
32
33
34
35
36
37
38
39
40
0
1
2
3
4
5
6
7
8
9
10
11
12
13
14
15
16
17
18
19
20
21
22
23
24
25
26
27
28
29
30
31
32
33
34
35
36
37
38
39
40

</DataArray>
</PointData>
<CellData>
<DataArray type="Float64" Name="aperture" format="ascii">
1.00794015430e-03
1.00814488342e-03
1.00987326373e-03
1.00819269960e-03
1.01045211853e-03
1.00889052321e-03
1.01029358521e-03
1.01203230053e-03
1.01236699891e-03
1.01623118076e-03
1.01484216511e-03
1.01452581113e-03
1.01656580409e-03
1.01614545829e-03
1.01737027453e-03
1.01649426721e-03
1.01729244970e-03
1.01569336760e-03
1.01828877683e-03
1.01452624214e-03
1.01731582507e-03
1.01332829676e-03
1.01635100550e-03
1.01275336569e-03
1.01587519439e-03
1.00983112157e-03
1.01382031373e-03
1.00983450358e-03
1.01220301578e-03
1.00902580049e-03
1.01124944491e-03
1.01003743212e-03
1.01988161801e-03
1.01926835250e-03
1.02028284523e-03
1.02041671514e-03
1.01980308800e-03
1.01344868566e-03
1.01530324567e-03
1.01382710207e-03
1.01524524141e-03
1.01717782068e-03
1.01677618785e-03
1.01908098082e-03
1.01843586563e-03
1.01618657500e-03
1.01375706593e-03
1.01483591112e-03
1.01532443085e-03
1.01451069709e-03
1.01550316935e-03
1.01376944068e-03
1.01790155787e-03
1.01928056276e-03
1.01961560353e-03
1.01914626700e-03
1.01740681564e-03
1.01890957044e-03
1.01913629562e-03
1.01673870033e-03
1.01955818838e-03
1.01847048914e-03
1.01713362538e-03
1.02021473515e-03
1.01531023417e-03
1.01516386965e-03
1.01709874945e-03
1.01399332184e-03
1.01650228776e-03
1.01278000563e-03
1.01658547466e-03
1.01047108771e-03
1.01389175846e-03
1.01051314966e-03
1.01306974923e-03
1.00791296853e-03
1.01110942677e-03
1.00783162648e-03
1.00967476092e-03
1.00721918843e-03
1.00972827256e-03
1.00717152090e-03
1.00928634388e-03
1.00710770725e-03
1.00889299892e-03
1.00893139285e-03
1.01005058228e-03
1.01070223382e-03
1.01152328306e-03
1.01387478297e-03
1.01384378344e-03
1.01442137095e-03
1.01601835035e-03
1.01603509823e-03
1.01715775509e-03
1.01746555131e-03
1.01565683046e-03
1.01423598891e-03
1.01671350910e-03
1.01359978598e-03
1.01512396221e-03
1.01508065431e-03
1.01250817917e-03
1.01339670332e-03
1.01241184942e-03
1.01886182548e-03
1.01877014280e-03
1.01809852410e-03
1.01292742255e-03
1.01474599618e-03
1.01332958882e-03
1.01660212023e-03
1.01540858302e-03
1.01368146003e-03
1.01772426529e-03
1.01762400915e-03
1.01658112343e-03
1.01916175116e-03
1.01865668752e-03
1.01778019745e-03
1.01860249723e-03
1.01861752842e-03
1.01894659901e-03
1.01799849673e-03
1.01651081259e-03
1.01603881098e-03
1.01655428977e-03
1.01535109589e-03

</DataArray>
<DataArray type="Int64" Name="cell_id" format="ascii">
0
1
2
3
4
5
6
7
8
9
10
11
12
13
14
15
16
17
18
19
20
21
22
23
24
25
26
27
28
29
30
31
32
33
34
35
36
37
38
39
40
41
42
43
44
45
46
47
48
49
50
51
52
53
54
55
56
57
58
59
60
61
62
63
0
1
2
3
4
5
6
7
8
9
10
11
12
13
14
15
16
17
18
19
20
21
22
23
24
25
26
27
28
29
30
31
32
33
34
35
36
37
38
39
40
41
42
43
44
45
46
47
48
49
50
51
52
53
54
55
56
57
58
59
60
61
62
63

</DataArray>
<DataArray type="Float64" Name="contact_traction" NumberOfComponents="3" format="ascii">
-3.97162902932e-06
-6.61996275524e-04
-8.27510236572e-04
-5.69592231887e-05
-9.94704899947e-04
-1.24541797143e-03
-2.87513857008e-05
-8.62167027970e-04
-1.07830786587e-03
1.79306370478e-06
-1.03259174762e-03
-1.29074163052e-03
1.80408789778e-05
-4.71636747269e-04
-5.89977084683e-04
2.95993229155e-05
-9.26300710942e-04
-1.15846687952e-03
2.76999810624e-05
-9.84331222255e-04
-1.23090112066e-03
1.37149047669e-05
-3.66859271535e-04
-4.58894431835e-04
4.79415455367e-05
-9.29414933778e-04
-1.16331323095e-03
0.00000000000e+00
0.00000000000e+00
0.00000000000e+00
1.87724466536e-05
-4.52750070290e-04
-5.66423857004e-04
2.37690141486e-06
-4.48990478788e-04
-5.61245962823e-04
1.13524498328e-05
-6.23832538034e-04
-7.79919781159e-04
0.00000000000e+00
0.00000000000e+00
0.00000000000e+00
-6.08340715479e-06
-2.48096074080e-04
-3.10213308206e-04
2.67626167360e-07
-4.10818505662e-04
-5.13523241042e-04
1.24565042663e-05
-6.73141287902e-04
-8.41570665089e-04
-1.72055636680e-05
-5.33162856224e-04
-6.66800502725e-04
-1.34962197696e-05
-5.73093727102e-04
-7.16565776804e-04
-3.52465398533e-05
-7.93082274183e-04
-9.92331386964e-04
-1.68577877001e-05
-5.42186340038e-04
-6.78060437399e-04
-4.97513124044e-05
-8.10804598108e-04
-1.01541193103e-03
-2.55664715793e-05
-7.89825421356e-04
-9.87798879366e-04
-3.87656855256e-05
-7.74310553285e-04
-9.69100429605e-04
-4.17571622985e-05
-1.05266286149e-03
-1.31686343764e-03
-8.77567777230e-05
-1.10868738082e-03
-1.39019387162e-03
-3.84046571427e-05
-8.02886229400e-04
-1.00475526797e-03
-6.69893876593e-05
-8.36742383961e-04
-1.04927459703e-03
-5.83984798698e-05
-8.01938945737e-04
-1.00507808709e-03
-6.28414832528e-05
-9.33428597624e-04
-1.16942694225e-03
-7.95408205702e-05
-1.02149138661e-03
-1.28072940342e-03
-7.52348992149e-05
-1.20661102972e-03
-1.51119285825e-03
2.72763342439e-06
-4.74613494646e-04
-5.93276665652e-04
9.31028164780e-06
-8.14911864547e-04
-1.01870630913e-03
-3.16560171840e-06
-5.22666551886e-04
-6.53345172811e-04
-7.29214690842e-06
-4.90497178137e-04
-6.13189225952e-04
-1.30745840598e-05
-6.21347091039e-04
-7.76855794504e-04
-9.83450852330e-06
-7.37581100962e-04
-9.22058327580e-04
-1.85788650392e-05
-5.64953416137e-04
-7.06573528365e-04
-4.80789904379e-05
-9.19187704294e-04
-1.15055531772e-03
2.27652015445e-05
-9.04049708506e-04
-1.13042036557e-03
9.12275440767e-06
-8.35984749812e-04
-1.04504315593e-03
1.76846064950e-05
-8.46787559396e-04
-1.05871525626e-03
-1.73111773708e-05
-7.81310732718e-04
-9.76878109338e-04
-1.97544066038e-05
-8.36738861626e-04
-1.04621502266e-03
-3.37917528494e-05
-9.95078573837e-04
-1.24456521692e-03
-4.97010400791e-05
-1.04702394441e-03
-1.31025363333e-03
-4.75692596789e-05
-1.03013464322e-03
-1.28904047261e-03
-4.02873804099e-05
-9.65766940329e-04
-1.20825859715e-03
1.35915880919e-05
-7.96846040511e-04
-9.96202432635e-04
8.42776341420e-06
-7.40072828747e-04
-9.25151017272e-04
8.87186571723e-06
-5.23530671376e-04
-6.54507297840e-04
1.27386800299e-05
-9.68536907792e-04
-1.21077584613e-03
-2.01634225212e-05
-7.79562975109e-04
-9.74779619138e-04
-2.32325454429e-05
-9.85468914864e-04
-1.23217841477e-03
-3.15245054725e-05
-9.04086653514e-04
-1.13079512368e-03
-6.20099498677e-07
-4.83691530824e-04
-6.04614910391e-04
-2.68813648389e-06
-6.99239483772e-04
-8.74055813563e-04
-2.27438872051e-06
-5.94399226747e-04
-7.43004472566e-04
-1.14306110512e-05
-5.04946087590e-04
-6.31344312560e-04
-1.05487590212e-05
-6.52088736471e-04
-8.15217567345e-04
-1.36011188805e-05
-7.32177070328e-04
-9.15379235574e-04
-1.85610683145e-05
-7.10085509989e-04
-8.87910067900e-04
-1.64206817319e-05
-7.53319866166e-04
-9.41873514886e-04
-4.15046678909e-06
-6.90568914634e-04
-8.63226733897e-04
1.00957781216e-05
-9.22503575076e-04
-1.15319852121e-03
2.46752202654e-05
-8.58159388027e-04
-1.07314258267e-03
-1.69507168702e-05
-4.80390887351e-04
-6.00862311927e-04
-9.12691823543e-06
-5.21299727105e-04
-6.51724522561e-04
-6.75992618427e-06
-1.27760495670e-04
-1.59924009571e-04
0.00000000000e+00
0.00000000000e+00
0.00000000000e+00
-3.37171450661e-06
-4.71147461603e-05
-5.90440482350e-05
-7.43493418884e-06
-1.57851359867e-04
-1.97532948432e-04
0.00000000000e+00
0.00000000000e+00
0.00000000000e+00
-1.18198081706e-05
-1.63210977635e-04
-2.04548019598e-04
-4.23306457647e-05
-3.11134776222e-04
-3.92501458090e-04
-3.04264634754e-05
-2.76636976246e-04
-3.47881504400e-04
-4.08217525237e-05
-3.76880308399e-04
-4.73855829766e-04
-4.23745513746e-05
-4.05369978981e-04
-5.09473414516e-04
-5.98394350971e-05
-6.91108969723e-04
-8.67118401323e-04
-3.48059365937e-05
-3.38056886269e-04
-4.24804939752e-04
-5.19194918004e-05
-1.15973522812e-03
-1.45112102839e-03
-2.21992859834e-05
-6.59485476160e-04
-8.24823751594e-04
5.13324319379e-06
-1.42771192311e-03
-1.78465143899e-03
-2.95963826003e-05
-1.34006379815e-03
-1.67548823527e-03
2.38572673623e-05
-1.90642061013e-03
-2.38321235151e-03
5.03024606826e-05
-1.41064039280e-03
-1.76442122918e-03
6.81033353414e-05
-1.56332233357e-03
-1.95600628791e-03
8.02112340493e-05
-1.96581692007e-03
-2.45931583642e-03
3.54190738804e-05
-8.71422172024e-04
-1.09017710193e-03
6.73666951169e-05
-1.52821725708e-03
-1.91212670232e-03
3.49856886294e-05
-1.19263788649e-03
-1.49143865461e-03
4.60567695364e-05
-1.39752326475e-03
-1.74785247765e-03
2.13115697107e-05
-1.04599371667e-03
-1.30776350016e-03
2.57583026452e-05
-1.14658928559e-03
-1.43359822648e-03
-7.44005575425e-06
-1.12687512328e-03
-1.40862460506e-03
3.60261089950e-05
-1.57953002615e-03
-1.97492602078e-03
5.30039088107e-05
-1.70493369053e-03
-2.13219674846e-03
3.01565954896e-05
-1.59479154178e-03
-1.99384579785e-03
-3.48063745155e-05
-6.03478007337e-04
-7.55601156619e-04
-2.98959061484e-05
-5.97099361911e-04
-7.47309144948e-04
-2.60371523852e-05
-6.21471255130e-04
-7.77520552639e-04
-2.32701883035e-05
-7.99560660592e-04
-9.99874016775e-04
-1.91728255629e-05
-9.87920168414e-04
-1.23513274616e-03
-2.63962911713e-05
-1.10082583209e-03
-1.37642782501e-03
1.89169389477e-05
-9.78974925095e-04
-1.22394709505e-03
3.10123180522e-06
-8.38623945843e-04
-1.04828710000e-03
-4.74741813157e-06
-7.45766092045e-04
-9.32226503142e-04
-1.64429223801e-05
-3.56416219572e-04
-4.45994134053e-04
-1.52154521480e-05
-4.09027294834e-04
-5.11637747068e-04
-2.10551767381e-05
-3.72632623284e-04
-4.66533748115e-04
1.19508112218e-05
-9.32002000999e-04
-1.16509827359e-03
1.92490362475e-06
-8.86435672240e-04
-1.10804720276e-03
2.60972482400e-06
-9.45762672824e-04
-1.18220784180e-03
-9.79892230097e-06
-5.61767621836e-04
-7.02316345902e-04
-7.70463834769e-06
-4.89729353074e-04
-6.12237444637e-04
-4.37187584208e-06
-1.19397519011e-04
-1.49346916002e-04
1.26687823451e-06
-1.09079385604e-03
-1.36349323967e-03
7.18818981574e-06
-1.01327771037e-03
-1.26662900819e-03
2.71092986117e-05
-1.44270632351e-03
-1.80370125106e-03
-4.07643911415e-06
-6.99051612489e-04
-8.73829372538e-04
-8.91181407660e-06
-8.16135303322e-04
-1.02022994785e-03
3.53263820474e-07
-7.26393620215e-04
-9.07992132644e-04
-4.74889579486e-06
-3.32252111942e-04
-4.15357560387e-04
-1.72623579081e-05
-8.84430419693e-04
-1.10574858430e-03
-1.01748056039e-05
-4.02482596540e-04
-5.03263982646e-04
-1.10569758357e-05
-4.28464816181e-04
-5.35759325951e-04
-1.47509502363e-05
-9.48388158768e-04
-1.18562858475e-03

</DataArray>
<DataArray type="Int64" Name="grid_dim" format="ascii">
2
2
2
2
2
2
2
2
2
2
2
2
2
2
2
2
2
2
2
2
2
2
2
2
2
2
2
2
2
2
2
2
2
2
2
2
2
2
2
2
2
2
2
2
2
2
2
2
2
2
2
2
2
2
2
2
2
2
2
2
2
2
2
2
2
2
2
2
2
2
2
2
2
2
2
2
2
2
2
2
2
2
2
2
2
2
2
2
2
2
2
2
2
2
2
2
2
2
2
2
2
2
2
2
2
2
2
2
2
2
2
2
2
2
2
2
2
2
2
2
2
2
2
2
2
2
2
2

</DataArray>
<DataArray type="Int64" Name="is_mortar" format="ascii">
0
0
0
0
0
0
0
0
0
0
0
0
0
0
0
0
0
0
0
0
0
0
0
0
0
0
0
0
0
0
0
0
0
0
0
0
0
0
0
0
0
0
0
0
0
0
0
0
0
0
0
0
0
0
0
0
0
0
0
0
0
0
0
0
0
0
0
0
0
0
0
0
0
0
0
0
0
0
0
0
0
0
0
0
0
0
0
0
0
0
0
0
0
0
0
0
0
0
0
0
0
0
0
0
0
0
0
0
0
0
0
0
0
0
0
0
0
0
0
0
0
0
0
0
0
0
0
0

</DataArray>
<DataArray type="Int64" Name="mortar_side" format="ascii">
0
0
0
0
0
0
0
0
0
0
0
0
0
0
0
0
0
0
0
0
0
0
0
0
0
0
0
0
0
0
0
0
0
0
0
0
0
0
0
0
0
0
0
0
0
0
0
0
0
0
0
0
0
0
0
0
0
0
0
0
0
0
0
0
0
0
0
0
0
0
0
0
0
0
0
0
0
0
0
0
0
0
0
0
0
0
0
0
0
0
0
0
0
0
0
0
0
0
0
0
0
0
0
0
0
0
0
0
0
0
0
0
0
0
0
0
0
0
0
0
0
0
0
0
0
0
0
0

</DataArray>
<DataArray type="Float64" Name="pressure" format="ascii">
2.85711819849e+07
3.01434262228e+07
2.93476141177e+07
2.71918304531e+07
2.80304437631e+07
2.59752646817e+07
2.68201254216e+07
2.55209871700e+07
2.60751097654e+07
2.54448222401e+07
2.58697747524e+07
2.61079781658e+07
2.61316583196e+07
2.70580273680e+07
2.68190358207e+07
2.85422458249e+07
2.78677045180e+07
3.01462085594e+07
2.93214602943e+07
3.15370809205e+07
3.06818699748e+07
3.27587234983e+07
3.19087859520e+07
3.31979934741e+07
3.26438708786e+07
3.33678117141e+07
3.29278516658e+07
3.26866454362e+07
3.27416110565e+07
3.16247108662e+07
3.19243378356e+07
3.07667175839e+07
2.77781297305e+07
2.76287129707e+07
2.85331536189e+07
2.92387725009e+07
2.95019546292e+07
2.92894182263e+07
2.99275419986e+07
3.06090292511e+07
2.70476865985e+07
2.74682009648e+07
2.68444117143e+07
3.17285175126e+07
3.14419967697e+07
3.20872083275e+07
3.12800918517e+07
3.20151302654e+07
3.13159186611e+07
2.74675948260e+07
2.83550378480e+07
2.85461817537e+07
2.69921327343e+07
3.13185400145e+07
3.05533954360e+07
3.02884304277e+07
2.90929766224e+07
2.90932709729e+07
2.83709458733e+07
2.99222443003e+07
2.99765386973e+07
3.06935584088e+07
3.06395583623e+07
2.99598324797e+07
2.85830828092e+07
3.01628061951e+07
2.93788949143e+07
2.71007129538e+07
2.79512270881e+07
2.60691489708e+07
2.68228922114e+07
2.53835724953e+07
2.60315793800e+07
2.54496867039e+07
2.57372245417e+07
2.59752646817e+07
2.60038092994e+07
2.71969072595e+07
2.68252022280e+07
2.85711819849e+07
2.80355205695e+07
3.01290272469e+07
2.93332151419e+07
3.16097047195e+07
3.07373124613e+07
3.26020299530e+07
3.18247162057e+07
3.34073407487e+07
3.26965246080e+07
3.31979934741e+07
3.29673807004e+07
3.27187277179e+07
3.26038750983e+07
3.15633267411e+07
3.18950359922e+07
3.07247134311e+07
3.15961658319e+07
3.22565645597e+07
3.17128635968e+07
2.68306348571e+07
2.65294367781e+07
2.70687244981e+07
2.92183249490e+07
2.97851684460e+07
3.05083438532e+07
2.94741884507e+07
2.88207090923e+07
2.80935598347e+07
2.84945642587e+07
2.81576690777e+07
2.73269203571e+07
3.09049136229e+07
3.07552914365e+07
3.11091899464e+07
2.74517826092e+07
2.73760890580e+07
2.67096290692e+07
3.02460730855e+07
3.05187823227e+07
3.13291319193e+07
2.87575280595e+07
2.94435158993e+07
3.02112617912e+07
2.79546852506e+07
2.92333321701e+07
2.84201720615e+07
2.78275129819e+07
2.98514558755e+07

</DataArray>
<DataArray type="Float64" Name="specific_volume" format="ascii">
1.00794015430e-03
1.00814488342e-03
1.00987326373e-03
1.00819269960e-03
1.01045211853e-03
1.00889052321e-03
1.01029358521e-03
1.01203230053e-03
1.01236699891e-03
1.01623118076e-03
1.01484216511e-03
1.01452581113e-03
1.01656580409e-03
1.01614545829e-03
1.01737027453e-03
1.01649426721e-03
1.01729244970e-03
1.01569336760e-03
1.01828877683e-03
1.01452624214e-03
1.01731582507e-03
1.01332829676e-03
1.01635100550e-03
1.01275336569e-03
1.01587519439e-03
1.00983112157e-03
1.01382031373e-03
1.00983450358e-03
1.01220301578e-03
1.00902580049e-03
1.01124944491e-03
1.01003743212e-03
1.01988161801e-03
1.01926835250e-03
1.02028284523e-03
1.02041671514e-03
1.01980308800e-03
1.01344868566e-03
1.01530324567e-03
1.01382710207e-03
1.01524524141e-03
1.01717782068e-03
1.01677618785e-03
1.01908098082e-03
1.01843586563e-03
1.01618657500e-03
1.01375706593e-03
1.01483591112e-03
1.01532443085e-03
1.01451069709e-03
1.01550316935e-03
1.01376944068e-03
1.01790155787e-03
1.01928056276e-03
1.01961560353e-03
1.01914626700e-03
1.01740681564e-03
1.01890957044e-03
1.01913629562e-03
1.01673870033e-03
1.01955818838e-03
1.01847048914e-03
1.01713362538e-03
1.02021473515e-03
1.01531023417e-03
1.01516386965e-03
1.01709874945e-03
1.01399332184e-03
1.01650228776e-03
1.01278000563e-03
1.01658547466e-03
1.01047108771e-03
1.01389175846e-03
1.01051314966e-03
1.01306974923e-03
1.00791296853e-03
1.01110942677e-03
1.00783162648e-03
1.00967476092e-03
1.00721918843e-03
1.00972827256e-03
1.00717152090e-03
1.00928634388e-03
1.00710770725e-03
1.00889299892e-03
1.00893139285e-03
1.01005058228e-03
1.01070223382e-03
1.01152328306e-03
1.01387478297e-03
1.01384378344e-03
1.01442137095e-03
1.01601835035e-03
1.01603509823e-03
1.01715775509e-03
1.01746555131e-03
1.01565683046e-03
1.01423598891e-03
1.01671350910e-03
1.01359978598e-03
1.01512396221e-03
1.01508065431e-03
1.01250817917e-03
1.01339670332e-03
1.01241184942e-03
1.01886182548e-03
1.01877014280e-03
1.01809852410e-03
1.01292742255e-03
1.01474599618e-03
1.01332958882e-03
1.01660212023e-03
1.01540858302e-03
1.01368146003e-03
1.01772426529e-03
1.01762400915e-03
1.01658112343e-03
1.01916175116e-03
1.01865668752e-03
1.01778019745e-03
1.01860249723e-03
1.01861752842e-03
1.01894659901e-03
1.01799849673e-03
1.01651081259e-03
1.01603881098e-03
1.01655428977e-03
1.01535109589e-03

</DataArray>
<DataArray type="Int64" Name="states" format="ascii">
1
1
1
1
1
1
1
1
1
2
1
1
1
2
1
1
1
1
1
1
1
1
1
1
1
1
1
1
1
1
1
1
1
1
1
1
1
1
1
1
1
1
1
1
1
1
1
1
1
1
1
1
1
1
1
1
1
1
1
1
1
1
1
1
1
1
1
1
1
1
2
1
1
2
1
1
1
1
1
1
1
1
1
1
1
1
1
1
1
1
1
1
1
1
1
1
1
1
1
1
1
1
1
1
1
1
1
1
1
1
1
1
1
1
1
1
1
1
1
1
1
1
1
1
1
1
1
1

</DataArray>
<DataArray type="Int64" Name="subdomain_id" format="ascii">
5
5
5
5
5
5
5
5
5
5
5
5
5
5
5
5
5
5
5
5
5
5
5
5
5
5
5
5
5
5
5
5
5
5
5
5
5
5
5
5
5
5
5
5
5
5
5
5
5
5
5
5
5
5
5
5
5
5
5
5
5
5
5
5
6
6
6
6
6
6
6
6
6
6
6
6
6
6
6
6
6
6
6
6
6
6
6
6
6
6
6
6
6
6
6
6
6
6
6
6
6
6
6
6
6
6
6
6
6
6
6
6
6
6
6
6
6
6
6
6
6
6
6
6
6
6
6
6

</DataArray>
</CellData>
</Piece>
</UnstructuredGrid>
</VTKFile>
