<?xml version="1.0"?>
<VTKFile type="UnstructuredGrid" version="0.1" byte_order="LittleEndian">
<!--This file was created by meshio v5.3.5-->
<UnstructuredGrid>
<Piece NumberOfPoints="164" NumberOfCells="256">
<Points>
<DataArray type="Float64" Name="Points" NumberOfComponents="3" format="ascii">
-3.62777204087e+01
5.93338573254e+02
-3.00000000000e+03
-8.19500009019e+01
7.40929074508e+02
-2.82410848990e+03
-2.12013651697e+02
8.66050259858e+02
-2.67499486775e+03
-4.06667660990e+02
9.49653563059e+02
-2.57536033081e+03
-6.36277720409e+02
9.79011139066e+02
-2.54037333413e+03
-8.65887779828e+02
9.49653563059e+02
-2.57536033081e+03
-1.06054178912e+03
8.66050259858e+02
-2.67499486775e+03
-1.19060543992e+03
7.40929074508e+02
-2.82410848990e+03
-1.23627772041e+03
5.93338573254e+02
-3.00000000000e+03
-1.19060543992e+03
4.45748072000e+02
-3.17589151010e+03
-1.06054178912e+03
3.20626886651e+02
-3.32500513225e+03
-8.65887779828e+02
2.37023583450e+02
-3.42463966919e+03
-6.36277720409e+02
2.07666007442e+02
-3.45962666587e+03
-4.06667660990e+02
2.37023583450e+02
-3.42463966919e+03
-2.12013651697e+02
3.20626886651e+02
-3.32500513225e+03
-8.19500009019e+01
4.45748072000e+02
-3.17589151010e+03
-9.82301878795e+02
6.57836979237e+02
-2.92313379295e+03
-2.35388105079e+02
5.41264947208e+02
-3.06205893092e+03
-5.69871316028e+02
8.40374504474e+02
-2.70559404147e+03
-7.11529394962e+02
3.50161918889e+02
-3.28980665147e+03
-4.01907468113e+02
3.68697219987e+02
-3.26771713980e+03
-3.01147993968e+02
7.32392613644e+02
-2.83428184780e+03
-8.72831799617e+02
8.02387168171e+02
-2.75086558598e+03
-9.56998297522e+02
4.55590063739e+02
-3.16416228109e+03
-3.83495241035e+02
8.36515227620e+02
-2.71019334853e+03
-5.24957334276e+02
6.99549662937e+02
-2.87342255230e+03
-3.68806365849e+02
6.08303991849e+02
-2.98216490863e+03
-5.60624169490e+02
5.42627281744e+02
-3.06043536384e+03
-7.57039155452e+02
6.08228297855e+02
-2.98225511721e+03
-7.59403827432e+02
4.72412129709e+02
-3.14411452353e+03
-7.22504460330e+02
7.28377464595e+02
-2.83906691610e+03
-2.64377961448e+02
4.33055503539e+02
-3.19101792417e+03
-8.89060199783e+02
3.50161918889e+02
-3.28980665147e+03
-7.33474615242e+02
8.59960767873e+02
-2.68225204170e+03
-1.02657022686e+03
7.66800870444e+02
-2.79327568415e+03
-1.06255581105e+03
5.40549452857e+02
-3.06291162388e+03
-1.90023907337e+02
6.50395874092e+02
-2.93200175674e+03
-5.47512317998e+02
3.06492151437e+02
-3.34185025372e+03
-5.83826678727e+02
4.23842427026e+02
-3.20199764120e+03
-9.03659794049e+02
5.46923384679e+02
-3.05531546774e+03
-4.02488458118e+02
4.86298561892e+02
-3.12756531809e+03
-3.62777204087e+01
5.93338573254e+02
-3.00000000000e+03
-8.19500009019e+01
7.40929074508e+02
-2.82410848990e+03
-2.12013651697e+02
8.66050259858e+02
-2.67499486775e+03
-4.06667660990e+02
9.49653563059e+02
-2.57536033081e+03
-6.36277720409e+02
9.79011139066e+02
-2.54037333413e+03
-8.65887779828e+02
9.49653563059e+02
-2.57536033081e+03
-1.06054178912e+03
8.66050259858e+02
-2.67499486775e+03
-1.19060543992e+03
7.40929074508e+02
-2.82410848990e+03
-1.23627772041e+03
5.93338573254e+02
-3.00000000000e+03
-1.19060543992e+03
4.45748072000e+02
-3.17589151010e+03
-1.06054178912e+03
3.20626886651e+02
-3.32500513225e+03
-8.65887779828e+02
2.37023583450e+02
-3.42463966919e+03
-6.36277720409e+02
2.07666007442e+02
-3.45962666587e+03
-4.06667660990e+02
2.37023583450e+02
-3.42463966919e+03
-2.12013651697e+02
3.20626886651e+02
-3.32500513225e+03
-8.19500009019e+01
4.45748072000e+02
-3.17589151010e+03
-9.82301878795e+02
6.57836979237e+02
-2.92313379295e+03
-2.35388105079e+02
5.41264947208e+02
-3.06205893092e+03
-5.69871316028e+02
8.40374504474e+02
-2.70559404147e+03
-7.11529394962e+02
3.50161918889e+02
-3.28980665147e+03
-4.01907468113e+02
3.68697219987e+02
-3.26771713980e+03
-3.01147993968e+02
7.32392613644e+02
-2.83428184780e+03
-8.72831799617e+02
8.02387168171e+02
-2.75086558598e+03
-9.56998297522e+02
4.55590063739e+02
-3.16416228109e+03
-3.83495241035e+02
8.36515227620e+02
-2.71019334853e+03
-5.24957334276e+02
6.99549662937e+02
-2.87342255230e+03
-3.68806365849e+02
6.08303991849e+02
-2.98216490863e+03
-5.60624169490e+02
5.42627281744e+02
-3.06043536384e+03
-7.57039155452e+02
6.08228297855e+02
-2.98225511721e+03
-7.59403827432e+02
4.72412129709e+02
-3.14411452353e+03
-7.22504460330e+02
7.28377464595e+02
-2.83906691610e+03
-2.64377961448e+02
4.33055503539e+02
-3.19101792417e+03
-8.89060199783e+02
3.50161918889e+02
-3.28980665147e+03
-7.33474615242e+02
8.59960767873e+02
-2.68225204170e+03
-1.02657022686e+03
7.66800870444e+02
-2.79327568415e+03
-1.06255581105e+03
5.40549452857e+02
-3.06291162388e+03
-1.90023907337e+02
6.50395874092e+02
-2.93200175674e+03
-5.47512317998e+02
3.06492151437e+02
-3.34185025372e+03
-5.83826678727e+02
4.23842427026e+02
-3.20199764120e+03
-9.03659794049e+02
5.46923384679e+02
-3.05531546774e+03
-4.02488458118e+02
4.86298561892e+02
-3.12756531809e+03
1.39247167980e+02
4.29658966839e+02
-3.00000000000e+03
9.35748874867e+01
5.77249468093e+02
-2.82410848990e+03
-3.64887633081e+01
7.02370653443e+02
-2.67499486775e+03
-2.31142772601e+02
7.85973956644e+02
-2.57536033081e+03
-4.60752832020e+02
8.15331532651e+02
-2.54037333413e+03
-6.90362891439e+02
7.85973956644e+02
-2.57536033081e+03
-8.85016900732e+02
7.02370653443e+02
-2.67499486775e+03
-1.01508055153e+03
5.77249468093e+02
-2.82410848990e+03
-1.06075283202e+03
4.29658966839e+02
-3.00000000000e+03
-1.01508055153e+03
2.82068465585e+02
-3.17589151010e+03
-8.85016900732e+02
1.56947280236e+02
-3.32500513225e+03
-6.90362891439e+02
7.33439770346e+01
-3.42463966919e+03
-4.60752832020e+02
4.39864010275e+01
-3.45962666587e+03
-2.31142772601e+02
7.33439770346e+01
-3.42463966919e+03
-3.64887633081e+01
1.56947280236e+02
-3.32500513225e+03
9.35748874867e+01
2.82068465585e+02
-3.17589151010e+03
-3.85501157466e+02
1.86482312474e+02
-3.28980665147e+03
-5.42147648576e+02
6.95030235725e+02
-2.68374283693e+03
-8.39068547352e+02
3.81288122828e+02
-3.05764612713e+03
-7.08121434506e+01
4.83655900143e+02
-2.93564896075e+03
-7.81473409133e+02
5.67407476355e+02
-2.83583771891e+03
-6.34476559427e+02
2.26776986862e+02
-3.24178532851e+03
-2.34565328910e+02
6.48692719502e+02
-2.73896573837e+03
-1.42041358264e+02
2.85161188911e+02
-3.17220574597e+03
-1.44990189488e+01
3.72601666001e+02
-3.06799824326e+03
-2.65198556211e+02
4.05153668847e+02
-3.02920427692e+03
-2.55159122143e+02
5.40647758235e+02
-2.86772870912e+03
-4.63043301905e+02
4.99903277397e+02
-2.91628609053e+03
-5.29764428503e+02
3.64241917225e+02
-3.07796100389e+03
-6.80842827495e+02
4.59203661243e+02
-2.96479000430e+03
-3.76782071951e+02
3.02472868463e+02
-3.15157448967e+03
-8.24371166880e+01
5.92144412527e+02
-2.80635738636e+03
-7.13535311394e+02
6.72835621205e+02
-2.71019334853e+03
-3.74101443840e+02
7.12031896534e+02
-2.66348104659e+03
-9.07006645091e+02
4.86716267677e+02
-2.93200175674e+03
-8.20248311744e+02
2.73234816746e+02
-3.18641904284e+03
-2.26842404126e+02
1.96767464581e+02
-3.27754928450e+03
-5.42773360088e+02
1.32647419350e+02
-3.35396457876e+03
-6.10120761438e+02
5.73350861291e+02
-2.82875466856e+03
-7.00880134904e+02
3.40949100981e+02
-3.10572030134e+03
-4.13189601135e+02
6.11609458114e+02
-2.78315984835e+03
1.39247167980e+02
4.29658966839e+02
-3.00000000000e+03
9.35748874867e+01
5.77249468093e+02
-2.82410848990e+03
-3.64887633081e+01
7.02370653443e+02
-2.67499486775e+03
-2.31142772601e+02
7.85973956644e+02
-2.57536033081e+03
-4.60752832020e+02
8.15331532651e+02
-2.54037333413e+03
-6.90362891439e+02
7.85973956644e+02
-2.57536033081e+03
-8.85016900732e+02
7.02370653443e+02
-2.67499486775e+03
-1.01508055153e+03
5.77249468093e+02
-2.82410848990e+03
-1.06075283202e+03
4.29658966839e+02
-3.00000000000e+03
-1.01508055153e+03
2.82068465585e+02
-3.17589151010e+03
-8.85016900732e+02
1.56947280236e+02
-3.32500513225e+03
-6.90362891439e+02
7.33439770346e+01
-3.42463966919e+03
-4.60752832020e+02
4.39864010275e+01
-3.45962666587e+03
-2.31142772601e+02
7.33439770346e+01
-3.42463966919e+03
-3.64887633081e+01
1.56947280236e+02
-3.32500513225e+03
9.35748874867e+01
2.82068465585e+02
-3.17589151010e+03
-3.85501157466e+02
1.86482312474e+02
-3.28980665147e+03
-5.42147648576e+02
6.95030235725e+02
-2.68374283693e+03
-8.39068547352e+02
3.81288122828e+02
-3.05764612713e+03
-7.08121434506e+01
4.83655900143e+02
-2.93564896075e+03
-7.81473409133e+02
5.67407476355e+02
-2.83583771891e+03
-6.34476559427e+02
2.26776986862e+02
-3.24178532851e+03
-2.34565328910e+02
6.48692719502e+02
-2.73896573837e+03
-1.42041358264e+02
2.85161188911e+02
-3.17220574597e+03
-1.44990189488e+01
3.72601666001e+02
-3.06799824326e+03
-2.65198556211e+02
4.05153668847e+02
-3.02920427692e+03
-2.55159122143e+02
5.40647758235e+02
-2.86772870912e+03
-4.63043301905e+02
4.99903277397e+02
-2.91628609053e+03
-5.29764428503e+02
3.64241917225e+02
-3.07796100389e+03
-6.80842827495e+02
4.59203661243e+02
-2.96479000430e+03
-3.76782071951e+02
3.02472868463e+02
-3.15157448967e+03
-8.24371166880e+01
5.92144412527e+02
-2.80635738636e+03
-7.13535311394e+02
6.72835621205e+02
-2.71019334853e+03
-3.74101443840e+02
7.12031896534e+02
-2.66348104659e+03
-9.07006645091e+02
4.86716267677e+02
-2.93200175674e+03
-8.20248311744e+02
2.73234816746e+02
-3.18641904284e+03
-2.26842404126e+02
1.96767464581e+02
-3.27754928450e+03
-5.42773360088e+02
1.32647419350e+02
-3.35396457876e+03
-6.10120761438e+02
5.73350861291e+02
-2.82875466856e+03
-7.00880134904e+02
3.40949100981e+02
-3.10572030134e+03
-4.13189601135e+02
6.11609458114e+02
-2.78315984835e+03

</DataArray>
</Points>
<Cells>
<DataArray type="Int64" Name="connectivity" format="ascii">
0
1
36
0
15
17
0
17
36
1
2
21
1
21
36
2
3
24
2
21
24
3
4
18
3
18
24
4
5
33
4
18
33
5
6
22
5
22
33
6
7
34
6
22
34
7
8
16
7
16
34
8
9
35
8
16
35
9
10
23
9
23
35
10
11
32
10
23
32
11
12
19
11
19
32
12
13
37
12
19
37
13
14
20
13
20
37
14
15
31
14
20
31
15
17
31
16
22
30
16
22
34
16
28
30
16
28
39
16
35
39
17
26
36
17
26
40
17
31
40
18
24
25
18
25
30
18
30
33
19
29
32
19
29
38
19
37
38
20
31
40
20
37
38
20
38
40
21
24
25
21
25
26
21
26
36
22
30
33
23
29
32
23
29
39
23
35
39
25
26
27
25
27
28
25
28
30
26
27
40
27
28
29
27
29
38
27
38
40
28
29
39
41
42
77
41
56
58
41
58
77
42
43
62
42
62
77
43
44
65
43
62
65
44
45
59
44
59
65
45
46
74
45
59
74
46
47
63
46
63
74
47
48
75
47
63
75
48
49
57
48
57
75
49
50
76
49
57
76
50
51
64
50
64
76
51
52
73
51
64
73
52
53
60
52
60
73
53
54
78
53
60
78
54
55
61
54
61
78
55
56
72
55
61
72
56
58
72
57
63
71
57
63
75
57
69
71
57
69
80
57
76
80
58
67
77
58
67
81
58
72
81
59
65
66
59
66
71
59
71
74
60
70
73
60
70
79
60
78
79
61
72
81
61
78
79
61
79
81
62
65
66
62
66
67
62
67
77
63
71
74
64
70
73
64
70
80
64
76
80
66
67
68
66
68
69
66
69
71
67
68
81
68
69
70
68
70
79
68
79
81
69
70
80
82
83
101
82
97
106
82
101
106
83
84
113
83
101
113
84
85
104
84
104
113
85
86
115
85
104
115
86
87
99
86
99
115
87
88
114
87
99
114
88
89
102
88
102
114
89
90
116
89
102
116
90
91
100
90
100
116
91
92
117
91
100
117
92
93
103
92
103
117
93
94
119
93
103
119
94
95
98
94
98
119
95
96
118
95
98
118
96
97
105
96
105
118
97
105
106
98
103
112
98
103
119
98
112
118
99
114
120
99
115
122
99
120
122
100
111
116
100
111
121
100
117
121
101
106
107
101
107
108
101
108
113
102
111
116
102
111
120
102
114
120
103
110
112
103
110
121
103
117
121
104
108
113
104
108
122
104
115
122
105
106
107
105
107
112
105
112
118
107
108
109
107
109
110
107
110
112
108
109
122
109
110
111
109
111
120
109
120
122
110
111
121
123
124
142
123
138
147
123
142
147
124
125
154
124
142
154
125
126
145
125
145
154
126
127
156
126
145
156
127
128
140
127
140
156
128
129
155
128
140
155
129
130
143
129
143
155
130
131
157
130
143
157
131
132
141
131
141
157
132
133
158
132
141
158
133
134
144
133
144
158
134
135
160
134
144
160
135
136
139
135
139
160
136
137
159
136
139
159
137
138
146
137
146
159
138
146
147
139
144
153
139
144
160
139
153
159
140
155
161
140
156
163
140
161
163
141
152
157
141
152
162
141
158
162
142
147
148
142
148
149
142
149
154
143
152
157
143
152
161
143
155
161
144
151
153
144
151
162
144
158
162
145
149
154
145
149
163
145
156
163
146
147
148
146
148
153
146
153
159
148
149
150
148
150
151
148
151
153
149
150
163
150
151
152
150
152
161
150
161
163
151
152
162

</DataArray>
<DataArray type="Int64" Name="offsets" format="ascii">
3
6
9
12
15
18
21
24
27
30
33
36
39
42
45
48
51
54
57
60
63
66
69
72
75
78
81
84
87
90
93
96
99
102
105
108
111
114
117
120
123
126
129
132
135
138
141
144
147
150
153
156
159
162
165
168
171
174
177
180
183
186
189
192
195
198
201
204
207
210
213
216
219
222
225
228
231
234
237
240
243
246
249
252
255
258
261
264
267
270
273
276
279
282
285
288
291
294
297
300
303
306
309
312
315
318
321
324
327
330
333
336
339
342
345
348
351
354
357
360
363
366
369
372
375
378
381
384
387
390
393
396
399
402
405
408
411
414
417
420
423
426
429
432
435
438
441
444
447
450
453
456
459
462
465
468
471
474
477
480
483
486
489
492
495
498
501
504
507
510
513
516
519
522
525
528
531
534
537
540
543
546
549
552
555
558
561
564
567
570
573
576
579
582
585
588
591
594
597
600
603
606
609
612
615
618
621
624
627
630
633
636
639
642
645
648
651
654
657
660
663
666
669
672
675
678
681
684
687
690
693
696
699
702
705
708
711
714
717
720
723
726
729
732
735
738
741
744
747
750
753
756
759
762
765
768

</DataArray>
<DataArray type="Int64" Name="types" format="ascii">
5
5
5
5
5
5
5
5
5
5
5
5
5
5
5
5
5
5
5
5
5
5
5
5
5
5
5
5
5
5
5
5
5
5
5
5
5
5
5
5
5
5
5
5
5
5
5
5
5
5
5
5
5
5
5
5
5
5
5
5
5
5
5
5
5
5
5
5
5
5
5
5
5
5
5
5
5
5
5
5
5
5
5
5
5
5
5
5
5
5
5
5
5
5
5
5
5
5
5
5
5
5
5
5
5
5
5
5
5
5
5
5
5
5
5
5
5
5
5
5
5
5
5
5
5
5
5
5
5
5
5
5
5
5
5
5
5
5
5
5
5
5
5
5
5
5
5
5
5
5
5
5
5
5
5
5
5
5
5
5
5
5
5
5
5
5
5
5
5
5
5
5
5
5
5
5
5
5
5
5
5
5
5
5
5
5
5
5
5
5
5
5
5
5
5
5
5
5
5
5
5
5
5
5
5
5
5
5
5
5
5
5
5
5
5
5
5
5
5
5
5
5
5
5
5
5
5
5
5
5
5
5
5
5
5
5
5
5
5
5
5
5
5
5
5
5
5
5
5
5
5
5
5
5
5
5

</DataArray>
</Cells>
<PointData>
<DataArray type="Int64" Name="node_id" format="ascii">
0
1
2
3
4
5
6
7
8
9
10
11
12
13
14
15
16
17
18
19
20
21
22
23
24
25
26
27
28
29
30
31
32
33
34
35
36
37
38
39
40
41
42
43
44
45
46
47
48
49
50
51
52
53
54
55
56
57
58
59
60
61
62
63
64
65
66
67
68
69
70
71
72
73
74
75
76
77
78
79
80
81
0
1
2
3
4
5
6
7
8
9
10
11
12
13
14
15
16
17
18
19
20
21
22
23
24
25
26
27
28
29
30
31
32
33
34
35
36
37
38
39
40
41
42
43
44
45
46
47
48
49
50
51
52
53
54
55
56
57
58
59
60
61
62
63
64
65
66
67
68
69
70
71
72
73
74
75
76
77
78
79
80
81

</DataArray>
</PointData>
<CellData>
<DataArray type="Int64" Name="cell_id" format="ascii">
0
1
2
3
4
5
6
7
8
9
10
11
12
13
14
15
16
17
18
19
20
21
22
23
24
25
26
27
28
29
30
31
32
33
34
35
36
37
38
39
40
41
42
43
44
45
46
47
48
49
50
51
52
53
54
55
56
57
58
59
60
61
62
63
64
65
66
67
68
69
70
71
72
73
74
75
76
77
78
79
80
81
82
83
84
85
86
87
88
89
90
91
92
93
94
95
96
97
98
99
100
101
102
103
104
105
106
107
108
109
110
111
112
113
114
115
116
117
118
119
120
121
122
123
124
125
126
127
0
1
2
3
4
5
6
7
8
9
10
11
12
13
14
15
16
17
18
19
20
21
22
23
24
25
26
27
28
29
30
31
32
33
34
35
36
37
38
39
40
41
42
43
44
45
46
47
48
49
50
51
52
53
54
55
56
57
58
59
60
61
62
63
64
65
66
67
68
69
70
71
72
73
74
75
76
77
78
79
80
81
82
83
84
85
86
87
88
89
90
91
92
93
94
95
96
97
98
99
100
101
102
103
104
105
106
107
108
109
110
111
112
113
114
115
116
117
118
119
120
121
122
123
124
125
126
127

</DataArray>
<DataArray type="Int64" Name="grid_dim" format="ascii">
2
2
2
2
2
2
2
2
2
2
2
2
2
2
2
2
2
2
2
2
2
2
2
2
2
2
2
2
2
2
2
2
2
2
2
2
2
2
2
2
2
2
2
2
2
2
2
2
2
2
2
2
2
2
2
2
2
2
2
2
2
2
2
2
2
2
2
2
2
2
2
2
2
2
2
2
2
2
2
2
2
2
2
2
2
2
2
2
2
2
2
2
2
2
2
2
2
2
2
2
2
2
2
2
2
2
2
2
2
2
2
2
2
2
2
2
2
2
2
2
2
2
2
2
2
2
2
2
2
2
2
2
2
2
2
2
2
2
2
2
2
2
2
2
2
2
2
2
2
2
2
2
2
2
2
2
2
2
2
2
2
2
2
2
2
2
2
2
2
2
2
2
2
2
2
2
2
2
2
2
2
2
2
2
2
2
2
2
2
2
2
2
2
2
2
2
2
2
2
2
2
2
2
2
2
2
2
2
2
2
2
2
2
2
2
2
2
2
2
2
2
2
2
2
2
2
2
2
2
2
2
2
2
2
2
2
2
2
2
2
2
2
2
2
2
2
2
2
2
2
2
2
2
2
2
2

</DataArray>
<DataArray type="Float64" Name="interface_darcy_flux" format="ascii">
-1.25630638031e-05
-1.89068990319e-05
-9.99428956382e-06
-1.40530250282e-05
-8.00546451589e-06
-1.10979561630e-05
-7.50408942642e-06
-1.45536978072e-05
-7.84366201713e-06
-1.22767632051e-05
-7.64078531843e-06
-1.22861833615e-05
-6.80489060257e-06
-9.75597342420e-06
-6.50910217937e-06
-1.47464397170e-05
-7.23192203047e-06
-1.13702887582e-05
-8.10349428798e-06
-1.51491148877e-05
-7.31098424741e-06
-1.14565476256e-05
-7.60386740284e-06
-1.40140829008e-05
-7.65787633136e-06
-1.26286719948e-05
-8.41430785057e-06
-1.79444155324e-05
-9.64744575159e-06
-2.88077557516e-05
-1.33913231622e-05
-1.32901256441e-05
-7.41560525590e-06
-5.42503639341e-06
-7.32459382709e-06
-5.36299199322e-06
-4.61094104863e-06
-7.53278889741e-06
-8.25517305397e-06
-8.66678438560e-06
-7.39415353140e-06
-7.20958831224e-06
-5.57279935722e-06
-6.74608300080e-06
-6.38129151241e-06
-6.65661215270e-06
-8.72676830718e-06
-8.15261776855e-06
-9.37923242962e-06
-8.16372744227e-06
-8.67710160800e-06
-7.34952709109e-06
-4.86263438502e-06
-6.23580219427e-06
-4.63491688394e-06
-3.80451388362e-06
-9.61794754253e-06
-1.01408966108e-05
-6.85613900774e-06
-8.40909166053e-06
-8.17254405523e-06
-7.40295330595e-06
-7.82500741036e-06
-5.45704151531e-06
-1.00892023921e-05
-1.53850185583e-05
-8.76999144136e-06
-1.16875173010e-05
-6.81086566972e-06
-9.17119190026e-06
-7.58748788143e-06
-1.31672629815e-05
-7.52092128085e-06
-1.08958289344e-05
-7.83340876278e-06
-1.17073102170e-05
-6.71224082004e-06
-8.83893226282e-06
-6.40586175720e-06
-1.35233783548e-05
-6.80671405595e-06
-1.06792960999e-05
-8.28931163591e-06
-1.50963089199e-05
-7.90805991052e-06
-9.37037962837e-06
-7.85761070690e-06
-1.26096196635e-05
-6.35178374655e-06
-1.13528680623e-05
-7.99626713813e-06
-1.39515846739e-05
-8.78372931926e-06
-1.74135081787e-05
-9.79669277799e-06
-1.00707612849e-05
-7.26335742664e-06
-5.21797916845e-06
-6.57252910567e-06
-5.02553670905e-06
-4.95706792811e-06
-5.77431704896e-06
-5.63355093894e-06
-6.25048777816e-06
-6.77460397633e-06
-6.31162238627e-06
-5.56312588011e-06
-5.66019471426e-06
-4.77520686414e-06
-5.22359970856e-06
-6.36864706333e-06
-6.42693664505e-06
-6.88343432618e-06
-6.93448493811e-06
-6.40774169689e-06
-5.72755499290e-06
-4.80597376840e-06
-5.89203980380e-06
-4.12899130267e-06
-3.86112757269e-06
-6.59316505250e-06
-7.29127028555e-06
-5.50932237168e-06
-5.58584232144e-06
-6.02403550647e-06
-5.31867388793e-06
-5.39606427331e-06
-4.43838511305e-06
-8.53262334502e-06
-6.04320215694e-06
-5.24332910108e-06
-6.27851992150e-06
-4.85237061706e-06
-8.57315290961e-06
-4.91057285060e-06
-6.70829206748e-06
-5.22311301880e-06
-6.46011601860e-06
-4.31814887270e-06
-5.26953834286e-06
-4.20035302930e-06
-7.35911023023e-06
-4.45225309033e-06
-4.97882758522e-06
-4.23406993920e-06
-7.46964074551e-06
-4.26143865920e-06
-7.19391171816e-06
-4.88352272912e-06
-9.31059079502e-06
-6.01891462266e-06
-5.65385126829e-06
-4.32938592151e-06
-9.97080761723e-06
-4.94793097979e-06
-7.50326120536e-06
-5.18931568996e-06
-7.98753074446e-06
-4.81571535224e-06
-5.04999200434e-06
-5.26821139372e-06
-4.04959900687e-06
-3.55871626915e-06
-3.53056799307e-06
-3.10201603737e-06
-3.80838394125e-06
-3.89663702962e-06
-2.99415877290e-06
-2.65344335049e-06
-5.41822995388e-06
-4.87071409851e-06
-4.09069185950e-06
-3.80733422393e-06
-3.12513237520e-06
-3.14634740764e-06
-4.69802064044e-06
-3.68119463745e-06
-3.38816317845e-06
-3.49541058101e-06
-3.31974656357e-06
-3.25308161373e-06
-5.14285169876e-06
-4.62509762941e-06
-4.32894574027e-06
-4.62427311513e-06
-5.23500035858e-06
-3.64621180300e-06
-3.54832989876e-06
-4.26093389773e-06
-3.51688330525e-06
-3.34474472937e-06
-3.30626686075e-06
-4.98969016821e-06
-5.06022190407e-06
-1.35552675111e-06
-3.65829524487e-06
4.08278965297e-07
8.24809604531e-07
2.07174998900e-06
3.05163948283e-06
4.50996705409e-06
5.31878540566e-06
4.79500226067e-06
4.04246487028e-06
4.57642990735e-06
6.65971728519e-06
4.77236898323e-06
4.15253960902e-06
4.77153371726e-06
6.94349659320e-06
4.92040883137e-06
4.09064268979e-06
5.61933242160e-06
4.48994864183e-06
6.90218475350e-06
-3.09390289728e-06
3.37875935637e-06
-4.30208364609e-06
9.54812490495e-07
-4.76245801512e-06
2.51807510009e-07
-4.13710675522e-06
-5.27019287887e-07
-1.69543026476e-06
1.28954112593e-05
7.10770144512e-06
8.79380874101e-06
5.24464804093e-06
4.78492795137e-06
6.35258675273e-06
6.11850839794e-06
5.22025247042e-06
4.25841450430e-06
1.03969047744e-05
1.20084937669e-05
7.16736841115e-06
5.88469758341e-06
5.49680393133e-06
4.73288059183e-06
1.15013526697e-05
7.57731732258e-06
5.94079430015e-06
6.24372059632e-06
6.58443281353e-06
5.26007673223e-06
1.23058223832e-05
1.57618197427e-05
1.13298078570e-05
1.17612282454e-05
1.41006133402e-05
1.09357803604e-05
7.68114631873e-06
9.36671538165e-06
7.03082216691e-06
6.54782072724e-06
6.70444898669e-06

</DataArray>
<DataArray type="Int64" Name="interface_id" format="ascii">
0
0
0
0
0
0
0
0
0
0
0
0
0
0
0
0
0
0
0
0
0
0
0
0
0
0
0
0
0
0
0
0
0
0
0
0
0
0
0
0
0
0
0
0
0
0
0
0
0
0
0
0
0
0
0
0
0
0
0
0
0
0
0
0
0
0
0
0
0
0
0
0
0
0
0
0
0
0
0
0
0
0
0
0
0
0
0
0
0
0
0
0
0
0
0
0
0
0
0
0
0
0
0
0
0
0
0
0
0
0
0
0
0
0
0
0
0
0
0
0
0
0
0
0
0
0
0
0
1
1
1
1
1
1
1
1
1
1
1
1
1
1
1
1
1
1
1
1
1
1
1
1
1
1
1
1
1
1
1
1
1
1
1
1
1
1
1
1
1
1
1
1
1
1
1
1
1
1
1
1
1
1
1
1
1
1
1
1
1
1
1
1
1
1
1
1
1
1
1
1
1
1
1
1
1
1
1
1
1
1
1
1
1
1
1
1
1
1
1
1
1
1
1
1
1
1
1
1
1
1
1
1
1
1
1
1
1
1
1
1
1
1
1
1
1
1
1
1
1
1
1
1
1
1
1
1

</DataArray>
<DataArray type="Int64" Name="is_mortar" format="ascii">
1
1
1
1
1
1
1
1
1
1
1
1
1
1
1
1
1
1
1
1
1
1
1
1
1
1
1
1
1
1
1
1
1
1
1
1
1
1
1
1
1
1
1
1
1
1
1
1
1
1
1
1
1
1
1
1
1
1
1
1
1
1
1
1
1
1
1
1
1
1
1
1
1
1
1
1
1
1
1
1
1
1
1
1
1
1
1
1
1
1
1
1
1
1
1
1
1
1
1
1
1
1
1
1
1
1
1
1
1
1
1
1
1
1
1
1
1
1
1
1
1
1
1
1
1
1
1
1
1
1
1
1
1
1
1
1
1
1
1
1
1
1
1
1
1
1
1
1
1
1
1
1
1
1
1
1
1
1
1
1
1
1
1
1
1
1
1
1
1
1
1
1
1
1
1
1
1
1
1
1
1
1
1
1
1
1
1
1
1
1
1
1
1
1
1
1
1
1
1
1
1
1
1
1
1
1
1
1
1
1
1
1
1
1
1
1
1
1
1
1
1
1
1
1
1
1
1
1
1
1
1
1
1
1
1
1
1
1
1
1
1
1
1
1
1
1
1
1
1
1
1
1
1
1
1
1

</DataArray>
<DataArray type="Int64" Name="mortar_side" format="ascii">
1
1
1
1
1
1
1
1
1
1
1
1
1
1
1
1
1
1
1
1
1
1
1
1
1
1
1
1
1
1
1
1
1
1
1
1
1
1
1
1
1
1
1
1
1
1
1
1
1
1
1
1
1
1
1
1
1
1
1
1
1
1
1
1
2
2
2
2
2
2
2
2
2
2
2
2
2
2
2
2
2
2
2
2
2
2
2
2
2
2
2
2
2
2
2
2
2
2
2
2
2
2
2
2
2
2
2
2
2
2
2
2
2
2
2
2
2
2
2
2
2
2
2
2
2
2
2
2
1
1
1
1
1
1
1
1
1
1
1
1
1
1
1
1
1
1
1
1
1
1
1
1
1
1
1
1
1
1
1
1
1
1
1
1
1
1
1
1
1
1
1
1
1
1
1
1
1
1
1
1
1
1
1
1
1
1
1
1
1
1
1
1
2
2
2
2
2
2
2
2
2
2
2
2
2
2
2
2
2
2
2
2
2
2
2
2
2
2
2
2
2
2
2
2
2
2
2
2
2
2
2
2
2
2
2
2
2
2
2
2
2
2
2
2
2
2
2
2
2
2
2
2
2
2
2
2

</DataArray>
<DataArray type="Float64" Name="u_interface" NumberOfComponents="3" format="ascii">
-1.25241052372e-05
1.29752019397e-04
-6.46021821879e-04
-1.01495336257e-05
8.86443035318e-05
-5.79210482358e-04
-2.02081493121e-05
9.85768314031e-05
-6.17301018451e-04
-2.64913242300e-05
1.51229048156e-04
-7.06862191592e-04
-3.13529781588e-05
1.30044331217e-04
-6.79099955429e-04
-4.76231451495e-05
1.58253818009e-04
-7.55725815883e-04
-4.49646990469e-05
1.45670105997e-04
-7.30730504755e-04
-7.72231268298e-05
1.36304587908e-04
-7.75751289866e-04
-6.90618850645e-05
1.40807991246e-04
-7.68538269979e-04
-1.05176432388e-04
1.13412896549e-04
-7.73703418633e-04
-9.48747847845e-05
1.19938510263e-04
-7.78261604470e-04
-1.31776637418e-04
8.90220815375e-05
-7.62595613205e-04
-1.18772255396e-04
9.37017406944e-05
-7.74084037587e-04
-1.54826840741e-04
7.12019865832e-05
-7.32657057048e-04
-1.39766948383e-04
7.06940746969e-05
-7.54635576169e-04
-1.69294338874e-04
3.57181104788e-05
-6.98272275901e-04
-1.58399315641e-04
4.96307071248e-05
-7.21749856078e-04
-1.76282562355e-04
1.08301263390e-05
-6.48231143522e-04
-1.62763142637e-04
1.75877541261e-05
-6.82225082225e-04
-1.62684893804e-04
-1.05119814907e-05
-5.96273410926e-04
-1.60698059573e-04
-4.33620061416e-06
-6.30361329044e-04
-1.42826914546e-04
-2.85433461774e-05
-5.36062035697e-04
-1.46622594386e-04
-2.46031425873e-05
-5.77550929854e-04
-1.08695228301e-04
-2.25338935765e-05
-5.04136454757e-04
-1.22706353443e-04
-3.09154626491e-05
-5.36178160088e-04
-7.20260499550e-05
-6.93247854009e-06
-4.78629188923e-04
-9.04113876541e-05
-1.78721497271e-05
-5.09318450378e-04
-4.11977111879e-05
1.79756864730e-05
-4.92953380219e-04
-6.00591837821e-05
-2.79878931095e-07
-5.02329676702e-04
-1.88958397372e-05
5.16679759418e-05
-5.19463449556e-04
-3.38391115058e-05
3.07891952466e-05
-5.19184987909e-04
-2.25561599132e-05
6.35860644355e-05
-5.57277209756e-04
-1.28336467364e-04
5.85117242153e-05
-7.31416711700e-04
-1.41985887141e-04
5.46115304100e-05
-7.39730643477e-04
-1.22652241887e-04
4.20451159909e-05
-7.01431752091e-04
-1.30975058675e-04
2.36847602000e-05
-6.78685544543e-04
-1.45567468059e-04
1.49775554046e-05
-6.74151991404e-04
-4.00660667679e-05
8.05409691627e-05
-6.30795682806e-04
-4.91266205111e-05
5.58631645994e-05
-6.08991185209e-04
-4.18833618909e-05
4.68120173834e-05
-5.75985942564e-04
-7.66478643976e-05
1.10363875509e-04
-7.39838208963e-04
-9.27823035932e-05
8.59861179790e-05
-7.30619314696e-04
-1.02408668078e-04
9.65798622898e-05
-7.55116413461e-04
-1.16902247387e-04
-1.82806059980e-05
-5.75981211201e-04
-1.01109263331e-04
-6.31255372462e-06
-5.78685458759e-04
-8.94744034367e-05
-9.31731967895e-06
-5.45045985291e-04
-4.87444330278e-05
2.89820865564e-05
-5.53381748190e-04
-7.23879908614e-05
9.14923515467e-07
-5.39054223928e-04
-6.56161715101e-05
1.59575294555e-05
-5.63029359199e-04
-6.35982309078e-05
1.10976686195e-04
-7.18618210200e-04
-6.23389375836e-05
8.61457767255e-05
-6.81354554797e-04
-4.54152137687e-05
9.76579187292e-05
-6.65550261520e-04
-1.15887222248e-04
8.29544899879e-05
-7.54998721831e-04
-1.29209259688e-04
-1.41197931811e-05
-5.99156339746e-04
-1.29293049709e-04
-9.61197890157e-07
-6.28498846820e-04
-1.43696231121e-04
1.63758205277e-06
-6.43423478208e-04
-7.33781153371e-05
5.66759360942e-05
-6.55441100914e-04
-9.20961134181e-05
4.35082657609e-05
-6.64999838168e-04
-1.00621099927e-04
5.61882339161e-05
-6.97928875263e-04
-6.56538588888e-05
4.29677390381e-05
-6.18619110871e-04
-1.02652329973e-04
2.00680911380e-05
-6.36891067953e-04
-9.36877822960e-05
1.10528223000e-05
-6.05622180979e-04
-7.52167522360e-05
2.27436194710e-05
-5.96830910996e-04
-1.19297377259e-04
1.30160790334e-05
-6.46474636685e-04
-1.30656324243e-05
2.19150506206e-04
-5.79150183144e-04
-1.74468430004e-05
1.84410747376e-04
-5.09561251163e-04
-2.39464266714e-05
2.13782293689e-04
-5.35178342684e-04
-2.66889735067e-05
2.38099866903e-04
-6.25052248834e-04
-2.54084577160e-05
2.47345303599e-04
-5.92464310545e-04
-4.22860888422e-05
2.53385144813e-04
-6.75583883749e-04
-3.92083254845e-05
2.54810415509e-04
-6.31607775339e-04
-7.01027595539e-05
2.66076000150e-04
-6.89665374934e-04
-5.75731105985e-05
2.72261750634e-04
-6.60019585803e-04
-9.92325687421e-05
2.63702927581e-04
-6.87117777854e-04
-8.63583421129e-05
2.77374714913e-04
-6.69723882094e-04
-1.30690609986e-04
2.36956180963e-04
-6.62326971903e-04
-1.15400793956e-04
2.63612708916e-04
-6.51927826266e-04
-1.61039333439e-04
2.22385934516e-04
-6.36731123745e-04
-1.44347628941e-04
2.44426308679e-04
-6.35580460551e-04
-1.67467509677e-04
2.00242860397e-04
-5.82376164681e-04
-1.52257988459e-04
2.21358647153e-04
-5.95145608051e-04
-1.80630045323e-04
1.64809937561e-04
-5.34010182043e-04
-1.66680973357e-04
1.98852465439e-04
-5.48502216713e-04
-1.68512043578e-04
1.30867052741e-04
-4.82523272805e-04
-1.64702996858e-04
1.66801481049e-04
-5.00119582384e-04
-1.49836231992e-04
1.03045889153e-04
-4.28435358466e-04
-1.50395592718e-04
1.36928446843e-04
-4.46329590420e-04
-1.15785033422e-04
1.10412567422e-04
-4.00089967246e-04
-1.27590373882e-04
1.29650782878e-04
-3.98732945218e-04
-8.28574033205e-05
9.62620366295e-05
-3.91212969618e-04
-9.88700991968e-05
1.27588252065e-04
-3.93622206542e-04
-5.28257958317e-05
1.28941933437e-04
-4.13570919604e-04
-7.20883927923e-05
1.32765518356e-04
-4.00856950162e-04
-2.91458584277e-05
1.60584458550e-04
-4.49875692831e-04
-4.81733619125e-05
1.60736292140e-04
-4.24464576928e-04
-3.34297446490e-05
1.81830446888e-04
-4.68827287827e-04
-1.23758186138e-04
2.66131684387e-04
-5.84441247797e-04
-1.36567849538e-04
2.49352008952e-04
-5.92706074328e-04
-1.21359473110e-04
2.57245557508e-04
-5.50403752556e-04
-1.32415913548e-04
2.37636907066e-04
-5.26942374052e-04
-1.48504686376e-04
2.16505698329e-04
-5.25064577204e-04
-4.13818424408e-05
2.37795527558e-04
-5.24050489220e-04
-5.42141420738e-05
2.35293501550e-04
-4.92290309153e-04
-5.09815037358e-05
2.06886660135e-04
-4.62359021448e-04
-6.70010012638e-05
2.74688154088e-04
-6.06315604435e-04
-8.63443614878e-05
2.72278217252e-04
-5.88593079931e-04
-9.50935489325e-05
2.74110907874e-04
-6.18917973512e-04
-1.20021640539e-04
1.79359318088e-04
-4.20886425008e-04
-1.06345650712e-04
1.90024110832e-04
-4.27296180983e-04
-9.66980970275e-05
1.63117377755e-04
-4.06164012290e-04
-5.70740484328e-05
1.85367758505e-04
-4.36826169146e-04
-8.10644110312e-05
1.63251413931e-04
-4.10674145248e-04
-7.33703815036e-05
1.87756859752e-04
-4.35218011425e-04
-5.58551080993e-05
2.69657359899e-04
-5.91929050508e-04
-5.64071318522e-05
2.62388906155e-04
-5.55016043706e-04
-4.07981490470e-05
2.55666721006e-04
-5.56673111086e-04
-1.10664602014e-04
2.69019068912e-04
-6.09564701495e-04
-1.32602326462e-04
1.83424522516e-04
-4.44214013740e-04
-1.32328427646e-04
2.01307412874e-04
-4.67957984400e-04
-1.49785227315e-04
1.95084268410e-04
-4.90824581403e-04
-7.06933437614e-05
2.56070080347e-04
-5.24466854182e-04
-9.04660642006e-05
2.54338986084e-04
-5.18687235487e-04
-9.86405628989e-05
2.66265906189e-04
-5.50994848169e-04
-6.89535318456e-05
2.36855638008e-04
-4.93369622075e-04
-1.05175154531e-04
2.33018241277e-04
-4.85332976390e-04
-9.71289136169e-05
2.14024070390e-04
-4.59529243181e-04
-8.02433688878e-05
2.16232210804e-04
-4.62717210791e-04
-1.22321473857e-04
2.27095109158e-04
-4.87569749029e-04
1.27101070380e-05
6.26049645131e-06
-7.06949413189e-04
1.30243566722e-05
-2.11770712161e-05
-6.57231428216e-04
3.95805319945e-06
-1.89547952825e-05
-6.90385425373e-04
3.61558652263e-06
3.37456657190e-05
-7.48696530471e-04