<?xml version="1.0"?>
<VTKFile type="UnstructuredGrid" version="0.1" byte_order="LittleEndian">
<!--This file was created by meshio v5.3.5-->
<UnstructuredGrid>
<Piece NumberOfPoints="82" NumberOfCells="128">
<Points>
<DataArray type="Float64" Name="Points" NumberOfComponents="3" format="ascii">
-3.62777204087e+01
5.93338573254e+02
-3.00000000000e+03
-8.19500009019e+01
7.40929074508e+02
-2.82410848990e+03
-2.12013651697e+02
8.66050259858e+02
-2.67499486775e+03
-4.06667660990e+02
9.49653563059e+02
-2.57536033081e+03
-6.36277720409e+02
9.79011139066e+02
-2.54037333413e+03
-8.65887779828e+02
9.49653563059e+02
-2.57536033081e+03
-1.06054178912e+03
8.66050259858e+02
-2.67499486775e+03
-1.19060543992e+03
7.40929074508e+02
-2.82410848990e+03
-1.23627772041e+03
5.93338573254e+02
-3.00000000000e+03
-1.19060543992e+03
4.45748072000e+02
-3.17589151010e+03
-1.06054178912e+03
3.20626886651e+02
-3.32500513225e+03
-8.65887779828e+02
2.37023583450e+02
-3.42463966919e+03
-6.36277720409e+02
2.07666007442e+02
-3.45962666587e+03
-4.06667660990e+02
2.37023583450e+02
-3.42463966919e+03
-2.12013651697e+02
3.20626886651e+02
-3.32500513225e+03
-8.19500009019e+01
4.45748072000e+02
-3.17589151010e+03
-9.82301878795e+02
6.57836979237e+02
-2.92313379295e+03
-2.35388105079e+02
5.41264947208e+02
-3.06205893092e+03
-5.69871316028e+02
8.40374504474e+02
-2.70559404147e+03
-7.11529394962e+02
3.50161918889e+02
-3.28980665147e+03
-4.01907468113e+02
3.68697219987e+02
-3.26771713980e+03
-3.01147993968e+02
7.32392613644e+02
-2.83428184780e+03
-8.72831799617e+02
8.02387168171e+02
-2.75086558598e+03
-9.56998297522e+02
4.55590063739e+02
-3.16416228109e+03
-3.83495241035e+02
8.36515227620e+02
-2.71019334853e+03
-5.24957334276e+02
6.99549662937e+02
-2.87342255230e+03
-3.68806365849e+02
6.08303991849e+02
-2.98216490863e+03
-5.60624169490e+02
5.42627281744e+02
-3.06043536384e+03
-7.57039155452e+02
6.08228297855e+02
-2.98225511721e+03
-7.59403827432e+02
4.72412129709e+02
-3.14411452353e+03
-7.22504460330e+02
7.28377464595e+02
-2.83906691610e+03
-2.64377961448e+02
4.33055503539e+02
-3.19101792417e+03
-8.89060199783e+02
3.50161918889e+02
-3.28980665147e+03
-7.33474615242e+02
8.59960767873e+02
-2.68225204170e+03
-1.02657022686e+03
7.66800870444e+02
-2.79327568415e+03
-1.06255581105e+03
5.40549452857e+02
-3.06291162388e+03
-1.90023907337e+02
6.50395874092e+02
-2.93200175674e+03
-5.47512317998e+02
3.06492151437e+02
-3.34185025372e+03
-5.83826678727e+02
4.23842427026e+02
-3.20199764120e+03
-9.03659794049e+02
5.46923384679e+02
-3.05531546774e+03
-4.02488458118e+02
4.86298561892e+02
-3.12756531809e+03
1.39247167980e+02
4.29658966839e+02
-3.00000000000e+03
9.35748874867e+01
5.77249468093e+02
-2.82410848990e+03
-3.64887633081e+01
7.02370653443e+02
-2.67499486775e+03
-2.31142772601e+02
7.85973956644e+02
-2.57536033081e+03
-4.60752832020e+02
8.15331532651e+02
-2.54037333413e+03
-6.90362891439e+02
7.85973956644e+02
-2.57536033081e+03
-8.85016900732e+02
7.02370653443e+02
-2.67499486775e+03
-1.01508055153e+03
5.77249468093e+02
-2.82410848990e+03
-1.06075283202e+03
4.29658966839e+02
-3.00000000000e+03
-1.01508055153e+03
2.82068465585e+02
-3.17589151010e+03
-8.85016900732e+02
1.56947280236e+02
-3.32500513225e+03
-6.90362891439e+02
7.33439770346e+01
-3.42463966919e+03
-4.60752832020e+02
4.39864010275e+01
-3.45962666587e+03
-2.31142772601e+02
7.33439770346e+01
-3.42463966919e+03
-3.64887633081e+01
1.56947280236e+02
-3.32500513225e+03
9.35748874867e+01
2.82068465585e+02
-3.17589151010e+03
-3.85501157466e+02
1.86482312474e+02
-3.28980665147e+03
-5.42147648576e+02
6.95030235725e+02
-2.68374283693e+03
-8.39068547352e+02
3.81288122828e+02
-3.05764612713e+03
-7.08121434506e+01
4.83655900143e+02
-2.93564896075e+03
-7.81473409133e+02
5.67407476355e+02
-2.83583771891e+03
-6.34476559427e+02
2.26776986862e+02
-3.24178532851e+03
-2.34565328910e+02
6.48692719502e+02
-2.73896573837e+03
-1.42041358264e+02
2.85161188911e+02
-3.17220574597e+03
-1.44990189488e+01
3.72601666001e+02
-3.06799824326e+03
-2.65198556211e+02
4.05153668847e+02
-3.02920427692e+03
-2.55159122143e+02
5.40647758235e+02
-2.86772870912e+03
-4.63043301905e+02
4.99903277397e+02
-2.91628609053e+03
-5.29764428503e+02
3.64241917225e+02
-3.07796100389e+03
-6.80842827495e+02
4.59203661243e+02
-2.96479000430e+03
-3.76782071951e+02
3.02472868463e+02
-3.15157448967e+03
-8.24371166880e+01
5.92144412527e+02
-2.80635738636e+03
-7.13535311394e+02
6.72835621205e+02
-2.71019334853e+03
-3.74101443840e+02
7.12031896534e+02
-2.66348104659e+03
-9.07006645091e+02
4.86716267677e+02
-2.93200175674e+03
-8.20248311744e+02
2.73234816746e+02
-3.18641904284e+03
-2.26842404126e+02
1.96767464581e+02
-3.27754928450e+03
-5.42773360088e+02
1.32647419350e+02
-3.35396457876e+03
-6.10120761438e+02
5.73350861291e+02
-2.82875466856e+03
-7.00880134904e+02
3.40949100981e+02
-3.10572030134e+03
-4.13189601135e+02
6.11609458114e+02
-2.78315984835e+03

</DataArray>
</Points>
<Cells>
<DataArray type="Int64" Name="connectivity" format="ascii">
0
1
36
0
15
17
0
17
36
1
2
21
1
21
36
2
3
24
2
21
24
3
4
18
3
18
24
4
5
33
4
18
33
5
6
22
5
22
33
6
7
34
6
22
34
7
8
16
7
16
34
8
9
35
8
16
35
9
10
23
9
23
35
10
11
32
10
23
32
11
12
19
11
19
32
12
13
37
12
19
37
13
14
20
13
20
37
14
15
31
14
20
31
15
17
31
16
22
30
16
22
34
16
28
30
16
28
39
16
35
39
17
26
36
17
26
40
17
31
40
18
24
25
18
25
30
18
30
33
19
29
32
19
29
38
19
37
38
20
31
40
20
37
38
20
38
40
21
24
25
21
25
26
21
26
36
22
30
33
23
29
32
23
29
39
23
35
39
25
26
27
25
27
28
25
28
30
26
27
40
27
28
29
27
29
38
27
38
40
28
29
39
41
42
60
41
56
65
41
60
65
42
43
72
42
60
72
43
44
63
43
63
72
44
45
74
44
63
74
45
46
58
45
58
74
46
47
73
46
58
73
47
48
61
47
61
73
48
49
75
48
61
75
49
50
59
49
59
75
50
51
76
50
59
76
51
52
62
51
62
76
52
53
78
52
62
78
53
54
57
53
57
78
54
55
77
54
57
77
55
56
64
55
64
77
56
64
65
57
62
71
57
62
78
57
71
77
58
73
79
58
74
81
58
79
81
59
70
75
59
70
80
59
76
80
60
65
66
60
66
67
60
67
72
61
70
75
61
70
79
61
73
79
62
69
71
62
69
80
62
76
80
63
67
72
63
67
81
63
74
81
64
65
66
64
66
71
64
71
77
66
67
68
66
68
69
66
69
71
67
68
81
68
69
70
68
70
79
68
79
81
69
70
80

</DataArray>
<DataArray type="Int64" Name="offsets" format="ascii">
3
6
9
12
15
18
21
24
27
30
33
36
39
42
45
48
51
54
57
60
63
66
69
72
75
78
81
84
87
90
93
96
99
102
105
108
111
114
117
120
123
126
129
132
135
138
141
144
147
150
153
156
159
162
165
168
171
174
177
180
183
186
189
192
195
198
201
204
207
210
213
216
219
222
225
228
231
234
237
240
243
246
249
252
255
258
261
264
267
270
273
276
279
282
285
288
291
294
297
300
303
306
309
312
315
318
321
324
327
330
333
336
339
342
345
348
351
354
357
360
363
366
369
372
375
378
381
384

</DataArray>
<DataArray type="Int64" Name="types" format="ascii">
5
5
5
5
5
5
5
5
5
5
5
5
5
5
5
5
5
5
5
5
5
5
5
5
5
5
5
5
5
5
5
5
5
5
5
5
5
5
5
5
5
5
5
5
5
5
5
5
5
5
5
5
5
5
5
5
5
5
5
5
5
5
5
5
5
5
5
5
5
5
5
5
5
5
5
5
5
5
5
5
5
5
5
5
5
5
5
5
5
5
5
5
5
5
5
5
5
5
5
5
5
5
5
5
5
5
5
5
5
5
5
5
5
5
5
5
5
5
5
5
5
5
5
5
5
5
5
5

</DataArray>
</Cells>
<PointData>
<DataArray type="Int64" Name="node_id" format="ascii">
0
1
2
3
4
5
6
7
8
9
10
11
12
13
14
15
16
17
18
19
20
21
22
23
24
25
26
27
28
29
30
31
32
33
34
35
36
37
38
39
40
0
1
2
3
4
5
6
7
8
9
10
11
12
13
14
15
16
17
18
19
20
21
22
23
24
25
26
27
28
29
30
31
32
33
34
35
36
37
38
39
40

</DataArray>
</PointData>
<CellData>
<DataArray type="Float64" Name="aperture" format="ascii">
1.00794015463e-03
1.00814488365e-03
1.00987326407e-03
1.00819270007e-03
1.01045211902e-03
1.00889052373e-03
1.01029358577e-03
1.01203230118e-03
1.01236699957e-03
1.01623118247e-03
1.01484216583e-03
1.01452581163e-03
1.01656580470e-03
1.01614545951e-03
1.01737027510e-03
1.01649426756e-03
1.01729245013e-03
1.01569336787e-03
1.01828877720e-03
1.01452624232e-03
1.01731582535e-03
1.01332829684e-03
1.01635100569e-03
1.01275336579e-03
1.01587519454e-03
1.00983112166e-03
1.01382031387e-03
1.00983450370e-03
1.01220301595e-03
1.00902580060e-03
1.01124944507e-03
1.01003743233e-03
1.01988161865e-03
1.01926835308e-03
1.02028284583e-03
1.02041671565e-03
1.01980308843e-03
1.01344868610e-03
1.01530324610e-03
1.01382710237e-03
1.01524524209e-03
1.01717782135e-03
1.01677618854e-03
1.01908098110e-03
1.01843586595e-03
1.01618657523e-03
1.01375706618e-03
1.01483591133e-03
1.01532443115e-03
1.01451069773e-03
1.01550316994e-03
1.01376944121e-03
1.01790155851e-03
1.01928056306e-03
1.01961560390e-03
1.01914626736e-03
1.01740681620e-03
1.01890957102e-03
1.01913629627e-03
1.01673870080e-03
1.01955818887e-03
1.01847048955e-03
1.01713362578e-03
1.02021473562e-03
1.01531023417e-03
1.01516386965e-03
1.01709874945e-03
1.01399332184e-03
1.01650228776e-03
1.01278000563e-03
1.01658547178e-03
1.01047108771e-03
1.01389175846e-03
1.01051314623e-03
1.01306974923e-03
1.00791296853e-03
1.01110942677e-03
1.00783162648e-03
1.00967476092e-03
1.00721918843e-03
1.00972827256e-03
1.00717152090e-03
1.00928634388e-03
1.00710770725e-03
1.00889299892e-03
1.00893139285e-03
1.01005058228e-03
1.01070223382e-03
1.01152328306e-03
1.01387478297e-03
1.01384378344e-03
1.01442137095e-03
1.01601835035e-03
1.01603509823e-03
1.01715775509e-03
1.01746555131e-03
1.01565683046e-03
1.01423598891e-03
1.01671350910e-03
1.01359978598e-03
1.01512396221e-03
1.01508065431e-03
1.01250817917e-03
1.01339670332e-03
1.01241184942e-03
1.01886182548e-03
1.01877014280e-03
1.01809852410e-03
1.01292742255e-03
1.01474599618e-03
1.01332958882e-03
1.01660212023e-03
1.01540858302e-03
1.01368146003e-03
1.01772426529e-03
1.01762400915e-03
1.01658112343e-03
1.01916175116e-03
1.01865668752e-03
1.01778019745e-03
1.01860249723e-03
1.01861752842e-03
1.01894659901e-03
1.01799849673e-03
1.01651081259e-03
1.01603881098e-03
1.01655428977e-03
1.01535109589e-03

</DataArray>
<DataArray type="Int64" Name="cell_id" format="ascii">
0
1
2
3
4
5
6
7
8
9
10
11
12
13
14
15
16
17
18
19
20
21
22
23
24
25
26
27
28
29
30
31
32
33
34
35
36
37
38
39
40
41
42
43
44
45
46
47
48
49
50
51
52
53
54
55
56
57
58
59
60
61
62
63
0
1
2
3
4
5
6
7
8
9
10
11
12
13
14
15
16
17
18
19
20
21
22
23
24
25
26
27
28
29
30
31
32
33
34
35
36
37
38
39
40
41
42
43
44
45
46
47
48
49
50
51
52
53
54
55
56
57
58
59
60
61
62
63

</DataArray>
<DataArray type="Float64" Name="contact_traction" NumberOfComponents="3" format="ascii">
-3.97155204952e-06
-6.61996201073e-04
-8.27510146765e-04
-5.69591500719e-05
-9.94704850206e-04
-1.24541790643e-03
-2.87513220704e-05
-8.62166975617e-04
-1.07830779781e-03
1.79310798738e-06
-1.03259168296e-03
-1.29074154980e-03
1.80409225938e-05
-4.71636664246e-04
-5.89976983064e-04
2.95993602092e-05
-9.26300644077e-04
-1.15846679747e-03
2.77000138173e-05
-9.84331159515e-04
-1.23090104342e-03
1.37149036042e-05
-3.66859187892e-04
-4.58894327300e-04
4.79415693569e-05
-9.29414869457e-04
-1.16331315219e-03
0.00000000000e+00
0.00000000000e+00
0.00000000000e+00
1.87724146128e-05
-4.52749980476e-04
-5.66423743173e-04
2.37683545115e-06
-4.48990437016e-04
-5.61245910172e-04
1.13523895690e-05
-6.23832492529e-04
-7.79919722916e-04
0.00000000000e+00
0.00000000000e+00
0.00000000000e+00
-6.08349653729e-06
-2.48096002329e-04
-3.10213238494e-04
2.67540581535e-07
-4.10818465104e-04
-5.13523190275e-04
1.24564241484e-05
-6.73141241901e-04
-8.41570605745e-04
-1.72056554099e-05
-5.33162788171e-04
-6.66800451604e-04
-1.34962952021e-05
-5.73093674187e-04
-7.16565724947e-04
-3.52466197029e-05
-7.93082208992e-04
-9.92331329134e-04
-1.68578571436e-05
-5.42186273053e-04
-6.78060373475e-04
-4.97513637345e-05
-8.10804546223e-04
-1.01541187023e-03
-2.55665275760e-05
-7.89825361936e-04
-9.87798816881e-04
-3.87657144884e-05
-7.74310488584e-04
-9.69100350640e-04
-4.17571937535e-05
-1.05266280532e-03
-1.31686337270e-03
-8.77567732959e-05
-1.10868731058e-03
-1.39019379118e-03
-3.84046670227e-05
-8.02886156505e-04
-1.00475518389e-03
-6.69893521546e-05
-8.36742321006e-04
-1.04927452634e-03
-5.83984668073e-05
-8.01938854175e-04
-1.00507800909e-03
-6.28414332752e-05
-9.33428570145e-04
-1.16942690378e-03
-7.95407863856e-05
-1.02149133276e-03
-1.28072934052e-03
-7.52348480752e-05
-1.20661098742e-03
-1.51119280423e-03
2.72758742994e-06
-4.74613436552e-04
-5.93276592704e-04
9.31021889804e-06
-8.14911813377e-04
-1.01870624427e-03
-3.16563812576e-06
-5.22666487103e-04
-6.53345097435e-04
-7.29218802848e-06
-4.90497116795e-04
-6.13189150047e-04
-1.30746433320e-05
-6.21347031608e-04
-7.76855728247e-04
-9.83447195213e-06
-7.37581043254e-04
-9.22058254842e-04
-1.85788297100e-05
-5.64953359774e-04
-7.06573462317e-04
-4.80789500598e-05
-9.19187657399e-04
-1.15055526055e-03
2.27652210444e-05
-9.04049646211e-04
-1.13042028834e-03
9.12274258514e-06
-8.35984686605e-04
-1.04504307677e-03
1.76845822299e-05
-8.46787499029e-04
-1.05871518018e-03
-1.73112092844e-05
-7.81310665355e-04
-9.76878031333e-04
-1.97544347930e-05
-8.36738795651e-04
-1.04621494632e-03
-3.37917674015e-05
-9.95078513885e-04
-1.24456514264e-03
-4.97010057256e-05
-1.04702389225e-03
-1.31025357092e-03
-4.75692499873e-05
-1.03013458411e-03
-1.28904039825e-03
-4.02873650386e-05
-9.65766879763e-04
-1.20825852576e-03
1.35916143745e-05
-7.96845986778e-04
-9.96202366039e-04
8.42778465483e-06
-7.40072773803e-04
-9.25150948898e-04
8.87189685016e-06
-5.23530606702e-04
-6.54507217668e-04
1.27386368072e-05
-9.68536864380e-04
-1.21077579116e-03
-2.01634613047e-05
-7.79562912087e-04
-9.74779547079e-04
-2.32325858814e-05
-9.85468858909e-04
-1.23217834604e-03
-3.15245607425e-05
-9.04086597983e-04
-1.13079506141e-03
-6.20090857414e-07
-4.83691470848e-04
-6.04614835406e-04
-2.68814623118e-06
-6.99239420187e-04
-8.74055738823e-04
-2.27440584926e-06
-5.94399162216e-04
-7.43004397230e-04
-1.14305955854e-05
-5.04946022279e-04
-6.31344236776e-04
-1.05487805458e-05
-6.52088673315e-04
-8.15217493193e-04
-1.36011362605e-05
-7.32177006884e-04
-9.15379161015e-04
-1.85610625257e-05
-7.10085445010e-04
-8.87909991360e-04
-1.64207114858e-05
-7.53319804642e-04
-9.41873443212e-04
-4.15038448939e-06
-6.90568942338e-04
-8.63226976416e-04
1.00958505660e-05
-9.22503567969e-04
-1.15319878109e-03
2.46753011436e-05
-8.58159381068e-04
-1.07314283453e-03
-1.69506572536e-05
-4.80390944739e-04
-6.00862598468e-04
-9.12685198355e-06
-5.21299771479e-04
-6.51724771698e-04
-6.75988023901e-06
-1.27760546200e-04
-1.59924262228e-04
0.00000000000e+00
0.00000000000e+00
0.00000000000e+00
-3.37169447983e-06
-4.71147878744e-05
-5.90443060049e-05
-7.43490541174e-06
-1.57851386814e-04
-1.97533205119e-04
0.00000000000e+00
0.00000000000e+00
0.00000000000e+00
-1.18198133997e-05
-1.63211002255e-04
-2.04548322129e-04
-4.23307002803e-05
-3.11134806774e-04
-3.92501742165e-04
-3.04264818942e-05
-2.76636987174e-04
-3.47881807683e-04
-4.08218230640e-05
-3.76880307262e-04
-4.73856113782e-04
-4.23746074657e-05
-4.05369983187e-04
-5.09473703763e-04
-5.98395141593e-05
-6.91108951416e-04
-8.67118703473e-04
-3.48060138214e-05
-3.38056859027e-04
-4.24805220924e-04
-5.19195632440e-05
-1.15973518759e-03
-1.45112132736e-03
-2.21993526459e-05
-6.59485435809e-04
-8.24824054462e-04
5.13317589918e-06
-1.42771185366e-03
-1.78465173059e-03
-2.95964434135e-05
-1.34006375163e-03
-1.67548853509e-03
2.38572403935e-05
-1.90642053961e-03
-2.38321262835e-03
5.03024250014e-05
-1.41064032152e-03
-1.76442151558e-03
6.81033100063e-05
-1.56332223247e-03
-1.95600654098e-03
8.02111971973e-05
-1.96581686461e-03
-2.45931610364e-03
3.54190957690e-05
-8.71422072019e-04
-1.09017736204e-03
6.73666932484e-05
-1.52821717078e-03
-1.91212696512e-03
3.49857426351e-05
-1.19263781235e-03
-1.49143890446e-03
4.60568043389e-05
-1.39752319499e-03
-1.74785273692e-03
2.13116399497e-05
-1.04599367919e-03
-1.30776374117e-03
2.57583524849e-05
-1.14658923717e-03
-1.43359846827e-03
-7.43998325388e-06
-1.12687511439e-03
-1.40862485035e-03
3.60261131670e-05
-1.57952997564e-03
-1.97492628739e-03
5.30038965035e-05
-1.70493362904e-03
-2.13219701490e-03
3.01566258500e-05
-1.59479149933e-03
-1.99384605996e-03
-3.48063920111e-05
-6.03478009146e-04
-7.55601445600e-04
-2.98958942266e-05
-5.97099371112e-04
-7.47309431374e-04
-2.60371502372e-05
-6.21471252602e-04
-7.77520842350e-04
-2.32702423016e-05
-7.99560616461e-04
-9.99874305761e-04
-1.91728669054e-05
-9.87920122852e-04
-1.23513303320e-03
-2.63963463384e-05
-1.10082578400e-03
-1.37642810482e-03
1.89170004640e-05
-9.78974908615e-04
-1.22394735580e-03
3.10128371934e-06
-8.38623926494e-04
-1.04828737965e-03
-4.74736041686e-06
-7.45766099159e-04
-9.32226770012e-04
-1.64429689718e-05
-3.56416181336e-04
-4.45994414657e-04
-1.52154806435e-05
-4.09027266951e-04
-5.11638029916e-04
-2.10552043034e-05
-3.72632608599e-04
-4.66534033762e-04
1.19508182706e-05
-9.32001943324e-04
-1.16509854236e-03
1.92488849378e-06
-8.86435610821e-04
-1.10804748169e-03
2.60969280364e-06
-9.45762604787e-04
-1.18220811415e-03
-9.79887082666e-06
-5.61767630872e-04
-7.02316633341e-04
-7.70460023961e-06
-4.89729349487e-04
-6.12237718750e-04
-4.37185047100e-06
-1.19397523960e-04
-1.49347197917e-04
1.26693649501e-06
-1.09079382565e-03
-1.36349348824e-03
7.18822075487e-06
-1.01327766007e-03
-1.26662927108e-03
2.71093282761e-05
-1.44270628574e-03
-1.80370151170e-03
-4.07641343394e-06
-6.99051586489e-04
-8.73829653054e-04
-8.91180520833e-06
-8.16135269679e-04
-1.02023022781e-03
3.53279789048e-07
-7.26393565882e-04
-9.07992399783e-04
-4.74887387285e-06
-3.32252088544e-04
-4.15357843264e-04
-1.72623620527e-05
-8.84430379441e-04
-1.10574887574e-03
-1.01748129198e-05
-4.02482557742e-04
-5.03264269637e-04
-1.10569724805e-05
-4.28464786793e-04
-5.35759611570e-04
-1.47509695140e-05
-9.48388107967e-04
-1.18562887985e-03

</DataArray>
<DataArray type="Int64" Name="grid_dim" format="ascii">
2
2
2
2
2
2
2
2
2
2
2
2
2
2
2
2
2
2
2
2
2
2
2
2
2
2
2
2
2
2
2
2
2
2
2
2
2
2
2
2
2
2
2
2
2
2
2
2
2
2
2
2
2
2
2
2
2
2
2
2
2
2
2
2
2
2
2
2
2
2
2
2
2
2
2
2
2
2
2
2
2
2
2
2
2
2
2
2
2
2
2
2
2
2
2
2
2
2
2
2
2
2
2
2
2
2
2
2
2
2
2
2
2
2
2
2
2
2
2
2
2
2
2
2
2
2
2
2

</DataArray>
<DataArray type="Int64" Name="is_mortar" format="ascii">
0
0
0
0
0
0
0
0
0
0
0
0
0
0
0
0
0
0
0
0
0
0
0
0
0
0
0
0
0
0
0
0
0
0
0
0
0
0
0
0
0
0
0
0
0
0
0
0
0
0
0
0
0
0
0
0
0
0
0
0
0
0
0
0
0
0
0
0
0
0
0
0
0
0
0
0
0
0
0
0
0
0
0
0
0
0
0
0
0
0
0
0
0
0
0
0
0
0
0
0
0
0
0
0
0
0
0
0
0
0
0
0
0
0
0
0
0
0
0
0
0
0
0
0
0
0
0
0

</DataArray>
<DataArray type="Int64" Name="mortar_side" format="ascii">
0
0
0
0
0
0
0
0
0
0
0
0
0
0
0
0
0
0
0
0
0
0
0
0
0
0
0
0
0
0
0
0
0
0
0
0
0
0
0
0
0
0
0
0
0
0
0
0
0
0
0
0
0
0
0
0
0
0
0
0
0
0
0
0
0
0
0
0
0
0
0
0
0
0
0
0
0
0
0
0
0
0
0
0
0
0
0
0
0
0
0
0
0
0
0
0
0
0
0
0
0
0
0
0
0
0
0
0
0
0
0
0
0
0
0
0
0
0
0
0
0
0
0
0
0
0
0
0

</DataArray>
<DataArray type="Float64" Name="pressure" format="ascii">
2.85711825542e+07
3.01434266432e+07
2.93476146339e+07
2.71918310932e+07
2.80304443741e+07
2.59752653423e+07
2.68201260774e+07
2.55209878278e+07
2.60751104302e+07
2.54448228886e+07
2.58697754112e+07
2.61079788067e+07
2.61316589700e+07
2.70580280046e+07
2.68190364625e+07
2.85422464646e+07
2.78677051605e+07
3.01462091983e+07
2.93214609402e+07
3.15370815632e+07
3.06818706217e+07
3.27587241450e+07
3.19087866022e+07
3.31979941028e+07
3.26438715245e+07
3.33678122733e+07
3.29278522664e+07
3.26866458524e+07
3.27416115657e+07
3.16247108662e+07
3.19243381463e+07
3.07667178985e+07
2.77781304037e+07
2.76287136245e+07
2.85331542998e+07
2.92387731777e+07
2.95019552940e+07
2.92894187784e+07
2.99275425276e+07
3.06090296888e+07
2.70476872711e+07
2.74682016442e+07
2.68444123886e+07
3.17285181647e+07
3.14419974059e+07
3.20872089296e+07
3.12800922851e+07
3.20151308169e+07
3.13159191933e+07
2.74675954870e+07
2.83550384881e+07
2.85461823590e+07
2.69921334052e+07
3.13185406762e+07
3.05533961054e+07
3.02884310906e+07
2.90929772591e+07
2.90932716398e+07
2.83709465530e+07
2.99222448858e+07
2.99765393617e+07
3.06935590445e+07
3.06395589517e+07
2.99598331542e+07
2.85830797459e+07
3.01628031493e+07
2.93788918509e+07
2.71007098615e+07
2.79512240003e+07
2.60691458388e+07
2.68228890903e+07
2.53835693241e+07
2.60315762209e+07
2.54496835016e+07
2.57372213498e+07
2.59752614666e+07
2.60038060870e+07
2.71969040383e+07
2.68251990076e+07
2.85711787611e+07
2.80355173437e+07
3.01290240342e+07
2.93332119200e+07
3.16097015347e+07
3.07373092591e+07
3.26020268020e+07
3.18247130298e+07
3.34073376458e+07
3.26965214734e+07
3.31979904068e+07
3.29673776050e+07
3.27187246714e+07
3.26038720294e+07
3.15633236951e+07
3.18950329335e+07
3.07247103746e+07
3.15961626802e+07
3.22565614245e+07
3.17128604798e+07
2.68306316386e+07
2.65294335815e+07
2.70687212861e+07
2.92183217234e+07
2.97851652271e+07
3.05083406460e+07
2.94741853425e+07
2.88207059487e+07
2.80935567079e+07
2.84945610297e+07
2.81576658494e+07
2.73269171323e+07
3.09049104425e+07
3.07552882410e+07
3.11091867538e+07
2.74517794646e+07
2.73760858832e+07
2.67096258902e+07
3.02460699815e+07
3.05187791854e+07
3.13291288103e+07
2.87575248781e+07
2.94435127040e+07
3.02112586154e+07
2.79546820571e+07
2.92333289539e+07
2.84201688388e+07
2.78275097693e+07
2.98514526614e+07

</DataArray>
<DataArray type="Float64" Name="specific_volume" format="ascii">
1.00794015463e-03
1.00814488365e-03
1.00987326407e-03
1.00819270007e-03
1.01045211902e-03
1.00889052373e-03
1.01029358577e-03
1.01203230118e-03
1.01236699957e-03
1.01623118247e-03
1.01484216583e-03
1.01452581163e-03
1.01656580470e-03
1.01614545951e-03
1.01737027510e-03
1.01649426756e-03
1.01729245013e-03
1.01569336787e-03
1.01828877720e-03
1.01452624232e-03
1.01731582535e-03
1.01332829684e-03
1.01635100569e-03
1.01275336579e-03
1.01587519454e-03
1.00983112166e-03
1.01382031387e-03
1.00983450370e-03
1.01220301595e-03
1.00902580060e-03
1.01124944507e-03
1.01003743233e-03
1.01988161865e-03
1.01926835308e-03
1.02028284583e-03
1.02041671565e-03
1.01980308843e-03
1.01344868610e-03
1.01530324610e-03
1.01382710237e-03
1.01524524209e-03
1.01717782135e-03
1.01677618854e-03
1.01908098110e-03
1.01843586595e-03
1.01618657523e-03
1.01375706618e-03
1.01483591133e-03
1.01532443115e-03
1.01451069773e-03
1.01550316994e-03
1.01376944121e-03
1.01790155851e-03
1.01928056306e-03
1.01961560390e-03
1.01914626736e-03
1.01740681620e-03
1.01890957102e-03
1.01913629627e-03
1.01673870080e-03
1.01955818887e-03
1.01847048955e-03
1.01713362578e-03
1.02021473562e-03
1.01531023417e-03
1.01516386965e-03
1.01709874945e-03
1.01399332184e-03
1.01650228776e-03
1.01278000563e-03
1.01658547178e-03
1.01047108771e-03
1.01389175846e-03
1.01051314623e-03
1.01306974923e-03
1.00791296853e-03
1.01110942677e-03
1.00783162648e-03
1.00967476092e-03
1.00721918843e-03
1.00972827256e-03
1.00717152090e-03
1.00928634388e-03
1.00710770725e-03
1.00889299892e-03
1.00893139285e-03
1.01005058228e-03
1.01070223382e-03
1.01152328306e-03
1.01387478297e-03
1.01384378344e-03
1.01442137095e-03
1.01601835035e-03
1.01603509823e-03
1.01715775509e-03
1.01746555131e-03
1.01565683046e-03
1.01423598891e-03
1.01671350910e-03
1.01359978598e-03
1.01512396221e-03
1.01508065431e-03
1.01250817917e-03
1.01339670332e-03
1.01241184942e-03
1.01886182548e-03
1.01877014280e-03
1.01809852410e-03
1.01292742255e-03
1.01474599618e-03
1.01332958882e-03
1.01660212023e-03
1.01540858302e-03
1.01368146003e-03
1.01772426529e-03
1.01762400915e-03
1.01658112343e-03
1.01916175116e-03
1.01865668752e-03
1.01778019745e-03
1.01860249723e-03
1.01861752842e-03
1.01894659901e-03
1.01799849673e-03
1.01651081259e-03
1.01603881098e-03
1.01655428977e-03
1.01535109589e-03

</DataArray>
<DataArray type="Int64" Name="states" format="ascii">
0
0
1
1
1
1
1
1
1
2
1
1
1
2
0
1
1
0
0
0
0
1
0
1
0
0
0
0
0
1
0
0
1
1
0
1
0
1
0
0
1
1
1
0
0
1
0
1
0
1
1
1
1
0
1
0
1
0
0
0
0
0
0
0
0
0
0
0
0
0
2
0
0
2
0
0
0
0
0
0
0
0
0
0
0
0
0
0
0
0
0
0
0
0
0
0
0
0
0
0
0
0
0
0
0
0
0
0
0
0
0
0
0
0
0
0
0
0
0
0
0
0
0
0
0
0
0
0

</DataArray>
<DataArray type="Int64" Name="subdomain_id" format="ascii">
5
5
5
5
5
5
5
5
5
5
5
5
5
5
5
5
5
5
5
5
5
5
5
5
5
5
5
5
5
5
5
5
5
5
5
5
5
5
5
5
5
5
5
5
5
5
5
5
5
5
5
5
5
5
5
5
5
5
5
5
5
5
5
5
6
6
6
6
6
6
6
6
6
6
6
6
6
6
6
6
6
6
6
6
6
6
6
6
6
6
6
6
6
6
6
6
6
6
6
6
6
6
6
6
6
6
6
6
6
6
6
6
6
6
6
6
6
6
6
6
6
6
6
6
6
6
6
6

</DataArray>
</CellData>
</Piece>
</UnstructuredGrid>
</VTKFile>
