<?xml version="1.0"?>
<VTKFile type="UnstructuredGrid" version="0.1" byte_order="LittleEndian">
<!--This file was created by meshio v5.3.5-->
<UnstructuredGrid>
<Piece NumberOfPoints="164" NumberOfCells="256">
<Points>
<DataArray type="Float64" Name="Points" NumberOfComponents="3" format="ascii">
-3.62777204087e+01
5.93338573254e+02
-3.00000000000e+03
-8.19500009019e+01
7.40929074508e+02
-2.82410848990e+03
-2.12013651697e+02
8.66050259858e+02
-2.67499486775e+03
-4.06667660990e+02
9.49653563059e+02
-2.57536033081e+03
-6.36277720409e+02
9.79011139066e+02
-2.54037333413e+03
-8.65887779828e+02
9.49653563059e+02
-2.57536033081e+03
-1.06054178912e+03
8.66050259858e+02
-2.67499486775e+03
-1.19060543992e+03
7.40929074508e+02
-2.82410848990e+03
-1.23627772041e+03
5.93338573254e+02
-3.00000000000e+03
-1.19060543992e+03
4.45748072000e+02
-3.17589151010e+03
-1.06054178912e+03
3.20626886651e+02
-3.32500513225e+03
-8.65887779828e+02
2.37023583450e+02
-3.42463966919e+03
-6.36277720409e+02
2.07666007442e+02
-3.45962666587e+03
-4.06667660990e+02
2.37023583450e+02
-3.42463966919e+03
-2.12013651697e+02
3.20626886651e+02
-3.32500513225e+03
-8.19500009019e+01
4.45748072000e+02
-3.17589151010e+03
-9.82301878795e+02
6.57836979237e+02
-2.92313379295e+03
-2.35388105079e+02
5.41264947208e+02
-3.06205893092e+03
-5.69871316028e+02
8.40374504474e+02
-2.70559404147e+03
-7.11529394962e+02
3.50161918889e+02
-3.28980665147e+03
-4.01907468113e+02
3.68697219987e+02
-3.26771713980e+03
-3.01147993968e+02
7.32392613644e+02
-2.83428184780e+03
-8.72831799617e+02
8.02387168171e+02
-2.75086558598e+03
-9.56998297522e+02
4.55590063739e+02
-3.16416228109e+03
-3.83495241035e+02
8.36515227620e+02
-2.71019334853e+03
-5.24957334276e+02
6.99549662937e+02
-2.87342255230e+03
-3.68806365849e+02
6.08303991849e+02
-2.98216490863e+03
-5.60624169490e+02
5.42627281744e+02
-3.06043536384e+03
-7.57039155452e+02
6.08228297855e+02
-2.98225511721e+03
-7.59403827432e+02
4.72412129709e+02
-3.14411452353e+03
-7.22504460330e+02
7.28377464595e+02
-2.83906691610e+03
-2.64377961448e+02
4.33055503539e+02
-3.19101792417e+03
-8.89060199783e+02
3.50161918889e+02
-3.28980665147e+03
-7.33474615242e+02
8.59960767873e+02
-2.68225204170e+03
-1.02657022686e+03
7.66800870444e+02
-2.79327568415e+03
-1.06255581105e+03
5.40549452857e+02
-3.06291162388e+03
-1.90023907337e+02
6.50395874092e+02
-2.93200175674e+03
-5.47512317998e+02
3.06492151437e+02
-3.34185025372e+03
-5.83826678727e+02
4.23842427026e+02
-3.20199764120e+03
-9.03659794049e+02
5.46923384679e+02
-3.05531546774e+03
-4.02488458118e+02
4.86298561892e+02
-3.12756531809e+03
-3.62777204087e+01
5.93338573254e+02
-3.00000000000e+03
-8.19500009019e+01
7.40929074508e+02
-2.82410848990e+03
-2.12013651697e+02
8.66050259858e+02
-2.67499486775e+03
-4.06667660990e+02
9.49653563059e+02
-2.57536033081e+03
-6.36277720409e+02
9.79011139066e+02
-2.54037333413e+03
-8.65887779828e+02
9.49653563059e+02
-2.57536033081e+03
-1.06054178912e+03
8.66050259858e+02
-2.67499486775e+03
-1.19060543992e+03
7.40929074508e+02
-2.82410848990e+03
-1.23627772041e+03
5.93338573254e+02
-3.00000000000e+03
-1.19060543992e+03
4.45748072000e+02
-3.17589151010e+03
-1.06054178912e+03
3.20626886651e+02
-3.32500513225e+03
-8.65887779828e+02
2.37023583450e+02
-3.42463966919e+03
-6.36277720409e+02
2.07666007442e+02
-3.45962666587e+03
-4.06667660990e+02
2.37023583450e+02
-3.42463966919e+03
-2.12013651697e+02
3.20626886651e+02
-3.32500513225e+03
-8.19500009019e+01
4.45748072000e+02
-3.17589151010e+03
-9.82301878795e+02
6.57836979237e+02
-2.92313379295e+03
-2.35388105079e+02
5.41264947208e+02
-3.06205893092e+03
-5.69871316028e+02
8.40374504474e+02
-2.70559404147e+03
-7.11529394962e+02
3.50161918889e+02
-3.28980665147e+03
-4.01907468113e+02
3.68697219987e+02
-3.26771713980e+03
-3.01147993968e+02
7.32392613644e+02
-2.83428184780e+03
-8.72831799617e+02
8.02387168171e+02
-2.75086558598e+03
-9.56998297522e+02
4.55590063739e+02
-3.16416228109e+03
-3.83495241035e+02
8.36515227620e+02
-2.71019334853e+03
-5.24957334276e+02
6.99549662937e+02
-2.87342255230e+03
-3.68806365849e+02
6.08303991849e+02
-2.98216490863e+03
-5.60624169490e+02
5.42627281744e+02
-3.06043536384e+03
-7.57039155452e+02
6.08228297855e+02
-2.98225511721e+03
-7.59403827432e+02
4.72412129709e+02
-3.14411452353e+03
-7.22504460330e+02
7.28377464595e+02
-2.83906691610e+03
-2.64377961448e+02
4.33055503539e+02
-3.19101792417e+03
-8.89060199783e+02
3.50161918889e+02
-3.28980665147e+03
-7.33474615242e+02
8.59960767873e+02
-2.68225204170e+03
-1.02657022686e+03
7.66800870444e+02
-2.79327568415e+03
-1.06255581105e+03
5.40549452857e+02
-3.06291162388e+03
-1.90023907337e+02
6.50395874092e+02
-2.93200175674e+03
-5.47512317998e+02
3.06492151437e+02
-3.34185025372e+03
-5.83826678727e+02
4.23842427026e+02
-3.20199764120e+03
-9.03659794049e+02
5.46923384679e+02
-3.05531546774e+03
-4.02488458118e+02
4.86298561892e+02
-3.12756531809e+03
1.39247167980e+02
4.29658966839e+02
-3.00000000000e+03
9.35748874867e+01
5.77249468093e+02
-2.82410848990e+03
-3.64887633081e+01
7.02370653443e+02
-2.67499486775e+03
-2.31142772601e+02
7.85973956644e+02
-2.57536033081e+03
-4.60752832020e+02
8.15331532651e+02
-2.54037333413e+03
-6.90362891439e+02
7.85973956644e+02
-2.57536033081e+03
-8.85016900732e+02
7.02370653443e+02
-2.67499486775e+03
-1.01508055153e+03
5.77249468093e+02
-2.82410848990e+03
-1.06075283202e+03
4.29658966839e+02
-3.00000000000e+03
-1.01508055153e+03
2.82068465585e+02
-3.17589151010e+03
-8.85016900732e+02
1.56947280236e+02
-3.32500513225e+03
-6.90362891439e+02
7.33439770346e+01
-3.42463966919e+03
-4.60752832020e+02
4.39864010275e+01
-3.45962666587e+03
-2.31142772601e+02
7.33439770346e+01
-3.42463966919e+03
-3.64887633081e+01
1.56947280236e+02
-3.32500513225e+03
9.35748874867e+01
2.82068465585e+02
-3.17589151010e+03
-3.85501157466e+02
1.86482312474e+02
-3.28980665147e+03
-5.42147648576e+02
6.95030235725e+02
-2.68374283693e+03
-8.39068547352e+02
3.81288122828e+02
-3.05764612713e+03
-7.08121434506e+01
4.83655900143e+02
-2.93564896075e+03
-7.81473409133e+02
5.67407476355e+02
-2.83583771891e+03
-6.34476559427e+02
2.26776986862e+02
-3.24178532851e+03
-2.34565328910e+02
6.48692719502e+02
-2.73896573837e+03
-1.42041358264e+02
2.85161188911e+02
-3.17220574597e+03
-1.44990189488e+01
3.72601666001e+02
-3.06799824326e+03
-2.65198556211e+02
4.05153668847e+02
-3.02920427692e+03
-2.55159122143e+02
5.40647758235e+02
-2.86772870912e+03
-4.63043301905e+02
4.99903277397e+02
-2.91628609053e+03
-5.29764428503e+02
3.64241917225e+02
-3.07796100389e+03
-6.80842827495e+02
4.59203661243e+02
-2.96479000430e+03
-3.76782071951e+02
3.02472868463e+02
-3.15157448967e+03
-8.24371166880e+01
5.92144412527e+02
-2.80635738636e+03
-7.13535311394e+02
6.72835621205e+02
-2.71019334853e+03
-3.74101443840e+02
7.12031896534e+02
-2.66348104659e+03
-9.07006645091e+02
4.86716267677e+02
-2.93200175674e+03
-8.20248311744e+02
2.73234816746e+02
-3.18641904284e+03
-2.26842404126e+02
1.96767464581e+02
-3.27754928450e+03
-5.42773360088e+02
1.32647419350e+02
-3.35396457876e+03
-6.10120761438e+02
5.73350861291e+02
-2.82875466856e+03
-7.00880134904e+02
3.40949100981e+02
-3.10572030134e+03
-4.13189601135e+02
6.11609458114e+02
-2.78315984835e+03
1.39247167980e+02
4.29658966839e+02
-3.00000000000e+03
9.35748874867e+01
5.77249468093e+02
-2.82410848990e+03
-3.64887633081e+01
7.02370653443e+02
-2.67499486775e+03
-2.31142772601e+02
7.85973956644e+02
-2.57536033081e+03
-4.60752832020e+02
8.15331532651e+02
-2.54037333413e+03
-6.90362891439e+02
7.85973956644e+02
-2.57536033081e+03
-8.85016900732e+02
7.02370653443e+02
-2.67499486775e+03
-1.01508055153e+03
5.77249468093e+02
-2.82410848990e+03
-1.06075283202e+03
4.29658966839e+02
-3.00000000000e+03
-1.01508055153e+03
2.82068465585e+02
-3.17589151010e+03
-8.85016900732e+02
1.56947280236e+02
-3.32500513225e+03
-6.90362891439e+02
7.33439770346e+01
-3.42463966919e+03
-4.60752832020e+02
4.39864010275e+01
-3.45962666587e+03
-2.31142772601e+02
7.33439770346e+01
-3.42463966919e+03
-3.64887633081e+01
1.56947280236e+02
-3.32500513225e+03
9.35748874867e+01
2.82068465585e+02
-3.17589151010e+03
-3.85501157466e+02
1.86482312474e+02
-3.28980665147e+03
-5.42147648576e+02
6.95030235725e+02
-2.68374283693e+03
-8.39068547352e+02
3.81288122828e+02
-3.05764612713e+03
-7.08121434506e+01
4.83655900143e+02
-2.93564896075e+03
-7.81473409133e+02
5.67407476355e+02
-2.83583771891e+03
-6.34476559427e+02
2.26776986862e+02
-3.24178532851e+03
-2.34565328910e+02
6.48692719502e+02
-2.73896573837e+03
-1.42041358264e+02
2.85161188911e+02
-3.17220574597e+03
-1.44990189488e+01
3.72601666001e+02
-3.06799824326e+03
-2.65198556211e+02
4.05153668847e+02
-3.02920427692e+03
-2.55159122143e+02
5.40647758235e+02
-2.86772870912e+03
-4.63043301905e+02
4.99903277397e+02
-2.91628609053e+03
-5.29764428503e+02
3.64241917225e+02
-3.07796100389e+03
-6.80842827495e+02
4.59203661243e+02
-2.96479000430e+03
-3.76782071951e+02
3.02472868463e+02
-3.15157448967e+03
-8.24371166880e+01
5.92144412527e+02
-2.80635738636e+03
-7.13535311394e+02
6.72835621205e+02
-2.71019334853e+03
-3.74101443840e+02
7.12031896534e+02
-2.66348104659e+03
-9.07006645091e+02
4.86716267677e+02
-2.93200175674e+03
-8.20248311744e+02
2.73234816746e+02
-3.18641904284e+03
-2.26842404126e+02
1.96767464581e+02
-3.27754928450e+03
-5.42773360088e+02
1.32647419350e+02
-3.35396457876e+03
-6.10120761438e+02
5.73350861291e+02
-2.82875466856e+03
-7.00880134904e+02
3.40949100981e+02
-3.10572030134e+03
-4.13189601135e+02
6.11609458114e+02
-2.78315984835e+03

</DataArray>
</Points>
<Cells>
<DataArray type="Int64" Name="connectivity" format="ascii">
0
1
36
0
15
17
0
17
36
1
2
21
1
21
36
2
3
24
2
21
24
3
4
18
3
18
24
4
5
33
4
18
33
5
6
22
5
22
33
6
7
34
6
22
34
7
8
16
7
16
34
8
9
35
8
16
35
9
10
23
9
23
35
10
11
32
10
23
32
11
12
19
11
19
32
12
13
37
12
19
37
13
14
20
13
20
37
14
15
31
14
20
31
15
17
31
16
22
30
16
22
34
16
28
30
16
28
39
16
35
39
17
26
36
17
26
40
17
31
40
18
24
25
18
25
30
18
30
33
19
29
32
19
29
38
19
37
38
20
31
40
20
37
38
20
38
40
21
24
25
21
25
26
21
26
36
22
30
33
23
29
32
23
29
39
23
35
39
25
26
27
25
27
28
25
28
30
26
27
40
27
28
29
27
29
38
27
38
40
28
29
39
41
42
77
41
56
58
41
58
77
42
43
62
42
62
77
43
44
65
43
62
65
44
45
59
44
59
65
45
46
74
45
59
74
46
47
63
46
63
74
47
48
75
47
63
75
48
49
57
48
57
75
49
50
76
49
57
76
50
51
64
50
64
76
51
52
73
51
64
73
52
53
60
52
60
73
53
54
78
53
60
78
54
55
61
54
61
78
55
56
72
55
61
72
56
58
72
57
63
71
57
63
75
57
69
71
57
69
80
57
76
80
58
67
77
58
67
81
58
72
81
59
65
66
59
66
71
59
71
74
60
70
73
60
70
79
60
78
79
61
72
81
61
78
79
61
79
81
62
65
66
62
66
67
62
67
77
63
71
74
64
70
73
64
70
80
64
76
80
66
67
68
66
68
69
66
69
71
67
68
81
68
69
70
68
70
79
68
79
81
69
70
80
82
83
101
82
97
106
82
101
106
83
84
113
83
101
113
84
85
104
84
104
113
85
86
115
85
104
115
86
87
99
86
99
115
87
88
114
87
99
114
88
89
102
88
102
114
89
90
116
89
102
116
90
91
100
90
100
116
91
92
117
91
100
117
92
93
103
92
103
117
93
94
119
93
103
119
94
95
98
94
98
119
95
96
118
95
98
118
96
97
105
96
105
118
97
105
106
98
103
112
98
103
119
98
112
118
99
114
120
99
115
122
99
120
122
100
111
116
100
111
121
100
117
121
101
106
107
101
107
108
101
108
113
102
111
116
102
111
120
102
114
120
103
110
112
103
110
121
103
117
121
104
108
113
104
108
122
104
115
122
105
106
107
105
107
112
105
112
118
107
108
109
107
109
110
107
110
112
108
109
122
109
110
111
109
111
120
109
120
122
110
111
121
123
124
142
123
138
147
123
142
147
124
125
154
124
142
154
125
126
145
125
145
154
126
127
156
126
145
156
127
128
140
127
140
156
128
129
155
128
140
155
129
130
143
129
143
155
130
131
157
130
143
157
131
132
141
131
141
157
132
133
158
132
141
158
133
134
144
133
144
158
134
135
160
134
144
160
135
136
139
135
139
160
136
137
159
136
139
159
137
138
146
137
146
159
138
146
147
139
144
153
139
144
160
139
153
159
140
155
161
140
156
163
140
161
163
141
152
157
141
152
162
141
158
162
142
147
148
142
148
149
142
149
154
143
152
157
143
152
161
143
155
161
144
151
153
144
151
162
144
158
162
145
149
154
145
149
163
145
156
163
146
147
148
146
148
153
146
153
159
148
149
150
148
150
151
148
151
153
149
150
163
150
151
152
150
152
161
150
161
163
151
152
162

</DataArray>
<DataArray type="Int64" Name="offsets" format="ascii">
3
6
9
12
15
18
21
24
27
30
33
36
39
42
45
48
51
54
57
60
63
66
69
72
75
78
81
84
87
90
93
96
99
102
105
108
111
114
117
120
123
126
129
132
135
138
141
144
147
150
153
156
159
162
165
168
171
174
177
180
183
186
189
192
195
198
201
204
207
210
213
216
219
222
225
228
231
234
237
240
243
246
249
252
255
258
261
264
267
270
273
276
279
282
285
288
291
294
297
300
303
306
309
312
315
318
321
324
327
330
333
336
339
342
345
348
351
354
357
360
363
366
369
372
375
378
381
384
387
390
393
396
399
402
405
408
411
414
417
420
423
426
429
432
435
438
441
444
447
450
453
456
459
462
465
468
471
474
477
480
483
486
489
492
495
498
501
504
507
510
513
516
519
522
525
528
531
534
537
540
543
546
549
552
555
558
561
564
567
570
573
576
579
582
585
588
591
594
597
600
603
606
609
612
615
618
621
624
627
630
633
636
639
642
645
648
651
654
657
660
663
666
669
672
675
678
681
684
687
690
693
696
699
702
705
708
711
714
717
720
723
726
729
732
735
738
741
744
747
750
753
756
759
762
765
768

</DataArray>
<DataArray type="Int64" Name="types" format="ascii">
5
5
5
5
5
5
5
5
5
5
5
5
5
5
5
5
5
5
5
5
5
5
5
5
5
5
5
5
5
5
5
5
5
5
5
5
5
5
5
5
5
5
5
5
5
5
5
5
5
5
5
5
5
5
5
5
5
5
5
5
5
5
5
5
5
5
5
5
5
5
5
5
5
5
5
5
5
5
5
5
5
5
5
5
5
5
5
5
5
5
5
5
5
5
5
5
5
5
5
5
5
5
5
5
5
5
5
5
5
5
5
5
5
5
5
5
5
5
5
5
5
5
5
5
5
5
5
5
5
5
5
5
5
5
5
5
5
5
5
5
5
5
5
5
5
5
5
5
5
5
5
5
5
5
5
5
5
5
5
5
5
5
5
5
5
5
5
5
5
5
5
5
5
5
5
5
5
5
5
5
5
5
5
5
5
5
5
5
5
5
5
5
5
5
5
5
5
5
5
5
5
5
5
5
5
5
5
5
5
5
5
5
5
5
5
5
5
5
5
5
5
5
5
5
5
5
5
5
5
5
5
5
5
5
5
5
5
5
5
5
5
5
5
5
5
5
5
5
5
5
5
5
5
5
5
5

</DataArray>
</Cells>
<PointData>
<DataArray type="Int64" Name="node_id" format="ascii">
0
1
2
3
4
5
6
7
8
9
10
11
12
13
14
15
16
17
18
19
20
21
22
23
24
25
26
27
28
29
30
31
32
33
34
35
36
37
38
39
40
41
42
43
44
45
46
47
48
49
50
51
52
53
54
55
56
57
58
59
60
61
62
63
64
65
66
67
68
69
70
71
72
73
74
75
76
77
78
79
80
81
0
1
2
3
4
5
6
7
8
9
10
11
12
13
14
15
16
17
18
19
20
21
22
23
24
25
26
27
28
29
30
31
32
33
34
35
36
37
38
39
40
41
42
43
44
45
46
47
48
49
50
51
52
53
54
55
56
57
58
59
60
61
62
63
64
65
66
67
68
69
70
71
72
73
74
75
76
77
78
79
80
81

</DataArray>
</PointData>
<CellData>
<DataArray type="Int64" Name="cell_id" format="ascii">
0
1
2
3
4
5
6
7
8
9
10
11
12
13
14
15
16
17
18
19
20
21
22
23
24
25
26
27
28
29
30
31
32
33
34
35
36
37
38
39
40
41
42
43
44
45
46
47
48
49
50
51
52
53
54
55
56
57
58
59
60
61
62
63
64
65
66
67
68
69
70
71
72
73
74
75
76
77
78
79
80
81
82
83
84
85
86
87
88
89
90
91
92
93
94
95
96
97
98
99
100
101
102
103
104
105
106
107
108
109
110
111
112
113
114
115
116
117
118
119
120
121
122
123
124
125
126
127
0
1
2
3
4
5
6
7
8
9
10
11
12
13
14
15
16
17
18
19
20
21
22
23
24
25
26
27
28
29
30
31
32
33
34
35
36
37
38
39
40
41
42
43
44
45
46
47
48
49
50
51
52
53
54
55
56
57
58
59
60
61
62
63
64
65
66
67
68
69
70
71
72
73
74
75
76
77
78
79
80
81
82
83
84
85
86
87
88
89
90
91
92
93
94
95
96
97
98
99
100
101
102
103
104
105
106
107
108
109
110
111
112
113
114
115
116
117
118
119
120
121
122
123
124
125
126
127

</DataArray>
<DataArray type="Int64" Name="grid_dim" format="ascii">
2
2
2
2
2
2
2
2
2
2
2
2
2
2
2
2
2
2
2
2
2
2
2
2
2
2
2
2
2
2
2
2
2
2
2
2
2
2
2
2
2
2
2
2
2
2
2
2
2
2
2
2
2
2
2
2
2
2
2
2
2
2
2
2
2
2
2
2
2
2
2
2
2
2
2
2
2
2
2
2
2
2
2
2
2
2
2
2
2
2
2
2
2
2
2
2
2
2
2
2
2
2
2
2
2
2
2
2
2
2
2
2
2
2
2
2
2
2
2
2
2
2
2
2
2
2
2
2
2
2
2
2
2
2
2
2
2
2
2
2
2
2
2
2
2
2
2
2
2
2
2
2
2
2
2
2
2
2
2
2
2
2
2
2
2
2
2
2
2
2
2
2
2
2
2
2
2
2
2
2
2
2
2
2
2
2
2
2
2
2
2
2
2
2
2
2
2
2
2
2
2
2
2
2
2
2
2
2
2
2
2
2
2
2
2
2
2
2
2
2
2
2
2
2
2
2
2
2
2
2
2
2
2
2
2
2
2
2
2
2
2
2
2
2
2
2
2
2
2
2
2
2
2
2
2
2

</DataArray>
<DataArray type="Float64" Name="interface_darcy_flux" format="ascii">
1.51313739363e-11
1.86834841837e-11
1.37147096525e-11
2.16583922062e-11
1.38562812604e-11
1.34502640887e-11
1.53775533242e-11
2.19140415979e-11
1.57984696692e-11
1.68180363436e-11
1.65786973573e-11
1.67665982986e-11
1.31098711283e-11
7.51531345857e-12
1.10062880435e-11
2.18541470891e-11
1.36671710812e-11
1.52686584799e-11
1.66455739579e-11
2.33923149757e-11
1.56121768554e-11
1.49061571561e-11
1.61886354920e-11
2.18690766224e-11
1.56801125705e-11
1.53689572670e-11
1.59227984434e-11
1.86397839654e-11
1.36323476523e-11
1.50367423664e-11
1.34508160125e-11
1.37613530172e-11
2.25692169854e-11
1.32743375580e-11
2.48610909561e-11
1.74224472215e-11
1.43924808556e-11
1.31845191586e-11
1.29259789729e-11
1.24952516724e-11
2.00403156758e-11
1.96636978876e-11
1.61716590537e-11
1.78687772341e-11
1.55666518385e-11
1.33839633825e-11
1.22469316349e-11
1.26009854116e-11
1.60649470088e-11
1.96051454020e-11
1.96021069367e-11
1.46063105506e-11
1.44824899062e-11
1.72749401383e-11
1.42211362625e-11
1.06138812854e-11
2.19218653622e-11
2.49237571157e-11
1.93105667269e-11
1.56926317257e-11
2.25585392684e-11
1.66178018258e-11
1.57432309431e-11
1.48328499273e-11
-5.19154907183e-12
-7.07041543564e-12
-5.16142818818e-12
-5.79712396233e-12
-4.39741817126e-12
-4.46550572473e-12
-4.39469876710e-12
-9.26401549510e-12
-5.79675686689e-12
-7.51069427254e-12
-6.82745446887e-12
-7.29631154802e-12
-5.48087553145e-12
-5.07320843890e-12
-4.81037107997e-12
-9.37224618391e-12
-5.40860769880e-12
-7.72660225435e-12
-7.11930637008e-12
-1.17795844450e-11
-7.74657122113e-12
-6.73334842152e-12
-7.72840997437e-12
-8.16564360874e-12
-4.12062967088e-12
-6.09523359389e-12
-5.91793458971e-12
-6.63515870939e-12
-5.50226152655e-12
-4.16870211017e-12
-3.76190375435e-12
-4.66461454372e-12
-7.51404484185e-12
-4.96640426332e-12
-7.98751920998e-12
-6.46786210319e-12
-5.57434071112e-12
-4.52708253334e-12
-5.13737107837e-12
-4.44259142543e-12
-6.88215205094e-12
-7.05658974797e-12
-6.52793536562e-12
-4.72401869828e-12
-5.48800588588e-12
-4.89757622906e-12
-4.67629152088e-12
-5.74959447486e-12
-6.96689658552e-12
-5.42937330808e-12
-5.57127298166e-12
-4.58856203726e-12
-4.86267150065e-12
-7.43234227847e-12
-4.72949520872e-12
-4.20559632792e-12
-8.04607893984e-12
-8.20016265878e-12
-6.14109244553e-12
-6.90027198485e-12
-7.88910541514e-12
-7.23170058171e-12
-6.76623398205e-12
-5.33171611406e-12
7.98009171567e-12
3.93285118818e-12
5.91014130305e-12
4.84226310895e-12
5.64416367917e-12
8.81018931836e-12
5.74214944646e-12
6.89938128198e-12
6.52449412743e-12
6.46115312347e-12
5.43167334789e-12
7.68066332244e-12
6.24478370958e-12
1.21236150802e-11
8.19397700942e-12
4.84569784037e-12
6.93788436143e-12
7.78964728918e-12
4.63986332163e-12
6.76000538083e-12
5.82528747314e-12
8.49416904614e-12
6.82223664275e-12
6.03664846238e-12
5.07381655845e-12
1.13687546023e-11
6.80920958766e-12
7.57713050585e-12
7.08343871852e-12
6.81993587586e-12
5.08095020646e-12
4.74969820069e-12
8.39898514441e-12
6.60034918979e-12
5.78022315571e-12
6.34890591102e-12
5.35977750160e-12
7.82007625370e-12
5.78428941930e-12
4.98883661258e-12
3.67716815225e-12
8.82915365222e-12
8.95681425719e-12
6.57127069129e-12
7.02491342800e-12
6.17441645261e-12
6.65746199894e-12
7.26125998643e-12
6.02907873261e-12
4.59516657270e-12
5.31923182063e-12
5.94988250327e-12
5.28472928001e-12
7.88467004879e-12
7.41331131327e-12
5.88280358021e-12
9.38181158471e-12
9.88436747318e-12
6.12179245891e-12
7.67768372210e-12
7.65497035844e-12
7.81272307528e-12
7.62950094980e-12
5.89108553481e-12
-1.90062185832e-11
-6.39032035432e-12
-1.26908313483e-11
-1.44712400923e-11
-1.34051937632e-11
-1.86075873812e-11
-1.52694630722e-11
-1.66612123525e-11
-1.36669779280e-11
-2.01718623039e-11
-1.39414254400e-11
-1.43440991239e-11
-1.37414845089e-11
-2.02651716608e-11
-1.44626854359e-11
-1.35772758252e-11
-1.44644385699e-11
-2.42436763897e-11
-1.57043654425e-11
-1.82434999024e-11
-1.47972671040e-11
-2.39780918360e-11
-1.81865179571e-11
-1.28430774440e-11
-1.46330603067e-11
-2.17734607621e-11
-1.35867554954e-11
-1.38939942103e-11
-1.29734768688e-11
-1.73383925534e-11
-1.41115191743e-11
-1.55643211200e-11
-2.19485051818e-11
-1.51342141233e-11
-1.37916615364e-11
-1.35043381932e-11
-1.10650163680e-11
-1.69216639067e-11
-1.50568980775e-11
-1.33887981208e-11
-1.04716514599e-11
-1.79109981760e-11
-2.05824991300e-11
-1.49657754766e-11
-1.70418297160e-11
-1.39419961621e-11
-1.33951133183e-11
-1.84788948292e-11
-1.66775055352e-11
-1.40204470491e-11
-1.34327707978e-11
-1.43971848799e-11
-1.30523574308e-11
-1.96482809783e-11
-2.15066592308e-11
-1.64913432760e-11
-2.17375347729e-11
-2.59931880242e-11
-1.74658775213e-11
-1.64342045648e-11
-2.17656514182e-11
-1.57525533647e-11
-1.51962522505e-11
-1.38221858793e-11

</DataArray>
<DataArray type="Int64" Name="interface_id" format="ascii">
0
0
0
0
0
0
0
0
0
0
0
0
0
0
0
0
0
0
0
0
0
0
0
0
0
0
0
0
0
0
0
0
0
0
0
0
0
0
0
0
0
0
0
0
0
0
0
0
0
0
0
0
0
0
0
0
0
0
0
0
0
0
0
0
0
0
0
0
0
0
0
0
0
0
0
0
0
0
0
0
0
0
0
0
0
0
0
0
0
0
0
0
0
0
0
0
0
0
0
0
0
0
0
0
0
0
0
0
0
0
0
0
0
0
0
0
0
0
0
0
0
0
0
0
0
0
0
0
1
1
1
1
1
1
1
1
1
1
1
1
1
1
1
1
1
1
1
1
1
1
1
1
1
1
1
1
1
1
1
1
1
1
1
1
1
1
1
1
1
1
1
1
1
1
1
1
1
1
1
1
1
1
1
1
1
1
1
1
1
1
1
1
1
1
1
1
1
1
1
1
1
1
1
1
1
1
1
1
1
1
1
1
1
1
1
1
1
1
1
1
1
1
1
1
1
1
1
1
1
1
1
1
1
1
1
1
1
1
1
1
1
1
1
1
1
1
1
1
1
1
1
1
1
1
1
1

</DataArray>
<DataArray type="Int64" Name="is_mortar" format="ascii">
1
1
1
1
1
1
1
1
1
1
1
1
1
1
1
1
1
1
1
1
1
1
1
1
1
1
1
1
1
1
1
1
1
1
1
1
1
1
1
1
1
1
1
1
1
1
1
1
1
1
1
1
1
1
1
1
1
1
1
1
1
1
1
1
1
1
1
1
1
1
1
1
1
1
1
1
1
1
1
1
1
1
1
1
1
1
1
1
1
1
1
1
1
1
1
1
1
1
1
1
1
1
1
1
1
1
1
1
1
1
1
1
1
1
1
1
1
1
1
1
1
1
1
1
1
1
1
1
1
1
1
1
1
1
1
1
1
1
1
1
1
1
1
1
1
1
1
1
1
1
1
1
1
1
1
1
1
1
1
1
1
1
1
1
1
1
1
1
1
1
1
1
1
1
1
1
1
1
1
1
1
1
1
1
1
1
1
1
1
1
1
1
1
1
1
1
1
1
1
1
1
1
1
1
1
1
1
1
1
1
1
1
1
1
1
1
1
1
1
1
1
1
1
1
1
1
1
1
1
1
1
1
1
1
1
1
1
1
1
1
1
1
1
1
1
1
1
1
1
1
1
1
1
1
1
1

</DataArray>
<DataArray type="Int64" Name="mortar_side" format="ascii">
1
1
1
1
1
1
1
1
1
1
1
1
1
1
1
1
1
1
1
1
1
1
1
1
1
1
1
1
1
1
1
1
1
1
1
1
1
1
1
1
1
1
1
1
1
1
1
1
1
1
1
1
1
1
1
1
1
1
1
1
1
1
1
1
2
2
2
2
2
2
2
2
2
2
2
2
2
2
2
2
2
2
2
2
2
2
2
2
2
2
2
2
2
2
2
2
2
2
2
2
2
2
2
2
2
2
2
2
2
2
2
2
2
2
2
2
2
2
2
2
2
2
2
2
2
2
2
2
1
1
1
1
1
1
1
1
1
1
1
1
1
1
1
1
1
1
1
1
1
1
1
1
1
1
1
1
1
1
1
1
1
1
1
1
1
1
1
1
1
1
1
1
1
1
1
1
1
1
1
1
1
1
1
1
1
1
1
1
1
1
1
1
2
2
2
2
2
2
2
2
2
2
2
2
2
2
2
2
2
2
2
2
2
2
2
2
2
2
2
2
2
2
2
2
2
2
2
2
2
2
2
2
2
2
2
2
2
2
2
2
2
2
2
2
2
2
2
2
2
2
2
2
2
2
2
2

</DataArray>
<DataArray type="Float64" Name="u_interface" NumberOfComponents="3" format="ascii">
-2.76598453176e-04
9.56537833626e-05
-7.16086021072e-04
-1.92055174662e-04
4.67909856602e-05
-6.41676128676e-04
-2.54451929355e-04
1.94605255231e-05
-6.83835279986e-04
-3.90776710761e-04
-6.79816488951e-06
-7.68275377092e-04
-3.44089315205e-04
-5.59297152695e-06
-7.44170778191e-04
-5.34503516789e-04
-1.76561889033e-04
-8.21210395718e-04
-4.59339903703e-04
-1.30222494423e-04
-7.95277485326e-04
-6.44899450004e-04
-4.58047442513e-04
-8.41238174871e-04
-5.80677504944e-04
-3.38867517696e-04
-8.32827066323e-04
-6.95539893536e-04
-7.46122833845e-04
-8.26309103772e-04
-6.56731990210e-04
-6.08888387082e-04
-8.34501183883e-04
-6.89339811441e-04
-1.00628934418e-03
-8.02789987934e-04
-6.80068865415e-04
-8.66952203008e-04
-8.13835325375e-04
-6.43520823700e-04
-1.20901408726e-03
-7.58253697089e-04
-6.53346029767e-04
-1.08671235827e-03
-7.84245395248e-04
-5.80535580068e-04
-1.28947258460e-03
-7.06174830783e-04
-6.14625071022e-04
-1.20282185639e-03
-7.32556033190e-04
-5.01685287707e-04
-1.31440291702e-03
-6.38770086903e-04
-5.46677989066e-04
-1.25140944655e-03
-6.73869058998e-04
-4.08228169124e-04
-1.18459853202e-03
-5.73374330800e-04
-4.64684335237e-04
-1.21160917271e-03
-6.09340161806e-04
-3.13217125660e-04
-1.00519937194e-03
-5.07496549488e-04
-3.71526472819e-04
-1.07430570297e-03
-5.48251871445e-04
-2.33461638039e-04
-7.52534589038e-04
-4.83958199694e-04
-2.91618478851e-04
-8.71408675824e-04
-5.13567211027e-04
-1.60902357154e-04
-4.88191654022e-04
-4.80087366364e-04
-2.18425866562e-04
-6.31263487956e-04
-5.01689528060e-04
-1.36462818218e-04
-2.51473495397e-04
-5.20536994008e-04
-1.71920870013e-04
-3.91017876024e-04
-5.16132925446e-04
-1.37511290208e-04
-6.01714976218e-05
-5.66498687730e-04
-1.55582494582e-04
-1.87405611939e-04
-5.54596230066e-04
-1.83774275799e-04
-5.31619096427e-05
-6.08298930456e-04
-5.88987498700e-04
-9.36043479948e-04
-7.52332217330e-04
-6.18700775702e-04
-1.07282908738e-03
-7.56978651348e-04
-5.33630761595e-04
-8.86399800951e-04
-7.18225853891e-04
-5.08050052580e-04
-9.74662885675e-04
-6.82415636256e-04
-5.16555184697e-04
-1.11247491496e-03
-6.66667541027e-04
-2.95776369334e-04
-1.20964278730e-04
-6.88657959145e-04
-2.88073357470e-04
-2.18975837807e-04
-6.63361754273e-04
-2.34911131078e-04
-1.84995749212e-04
-6.25045424875e-04
-5.27011910186e-04
-3.99321274296e-04
-7.97265745589e-04
-5.37895692730e-04
-5.63920280552e-04
-7.78280967450e-04
-6.03642672035e-04
-6.58836778404e-04
-8.00674493763e-04
-3.39278351126e-04
-8.39733276544e-04
-5.60525083143e-04
-3.23247735576e-04
-7.04544568743e-04
-5.77213647586e-04
-2.64489142537e-04
-6.09294413610e-04
-5.45662682263e-04
-2.18799520509e-04
-2.62911654483e-04
-5.92024647294e-04
-2.34409653082e-04
-4.70747147144e-04
-5.52779320636e-04
-2.55143100583e-04
-4.02346612600e-04
-5.90803993702e-04
-4.61932805701e-04
-2.78580451279e-04
-7.78333361439e-04
-4.03215488582e-04
-2.81393678219e-04
-7.40208425522e-04
-3.48341037747e-04
-1.37365803648e-04
-7.24346832424e-04
-6.19074934890e-04
-8.10588326718e-04
-7.89730633672e-04
-3.85191761611e-04
-9.52154907449e-04
-5.78725888735e-04
-4.29723512430e-04
-9.63840343371e-04
-6.16182856565e-04
-4.66971905680e-04
-1.09750786121e-03
-6.28161727779e-04
-3.91349311550e-04
-4.08459545410e-04
-7.06018271382e-04
-4.36267147885e-04
-5.91926468820e-04
-7.01698909864e-04
-4.98535635243e-04
-6.63503080440e-04
-7.34101624493e-04
-3.27433850764e-04
-3.62559243739e-04
-6.64615345639e-04
-4.09637923236e-04
-7.10640878249e-04
-6.53037713108e-04
-3.49364416196e-04
-6.33167413748e-04
-6.18884989789e-04
-3.11997027933e-04
-4.67957104542e-04
-6.26010230213e-04
-4.45741616138e-04
-8.72009931478e-04
-6.48936136440e-04
-1.41692262351e-04
1.59917998905e-04
-6.64073223739e-04
-6.25942619045e-05
1.15053941748e-04
-5.84715342556e-04
-8.80015086569e-05
1.03765518163e-04
-6.14290760160e-04
-2.31951002491e-04
6.47667245658e-05
-7.11447127526e-04
-1.55307095608e-04
8.52152312174e-05
-6.70442170024e-04
-3.22289325825e-04
-8.65918878439e-05
-7.51393927656e-04
-2.48101041616e-04
-2.99401586245e-05
-7.14204119617e-04
-3.63382902179e-04
-3.23767422731e-04
-7.46644837076e-04
-3.00617600446e-04
-2.04685483700e-04
-7.24021687921e-04
-3.94719096072e-04
-5.95569072290e-04
-7.22591508846e-04
-3.32354625270e-04
-4.46393496600e-04
-7.13710829696e-04
-3.79705144324e-04
-8.49647742224e-04
-6.93581251815e-04
-3.40886890671e-04
-6.98772776791e-04
-6.79688258310e-04
-3.53365229917e-04
-1.06733719337e-03
-6.55703366617e-04
-3.30292708661e-04
-8.99643473305e-04
-6.68465582548e-04
-2.59983471629e-04
-1.10964595368e-03
-5.92743231046e-04
-2.56539946138e-04
-1.02319063493e-03
-6.07651413880e-04
-2.10173675476e-04
-1.13781147083e-03
-5.40930816159e-04
-1.97158913224e-04
-1.05138067121e-03
-5.51541324399e-04
-1.50522656849e-04
-1.01643205108e-03
-4.91393017318e-04
-1.48641166915e-04
-1.00989017741e-03
-5.05841411569e-04
-1.00882481113e-04
-8.40485321073e-04
-4.52035802740e-04
-1.00142382020e-04
-8.73186368666e-04
-4.58411546776e-04
-3.80707555841e-05
-6.03578826818e-04
-4.15913286810e-04
-3.87070916422e-05
-6.81363975920e-04
-4.23101235797e-04
-1.56406200546e-05
-3.86716558297e-04
-4.17545490860e-04
-1.43373927895e-05
-4.76464582943e-04
-4.08728703809e-04
3.63084687649e-06
-1.67668530299e-04
-4.53776070235e-04
2.12420437955e-06
-2.76472873139e-04
-4.43742059757e-04
-8.02302910636e-06
1.19281435740e-05
-5.05467615172e-04
5.65786539257e-06
-9.57477456768e-05
-4.76611576296e-04
-2.83710801807e-05
2.81807803828e-05
-5.40561952040e-04
-2.00511939201e-04
-7.02037017065e-04
-6.19080755535e-04
-2.33827223403e-04
-8.41415466882e-04
-6.26410221669e-04
-1.49620460704e-04
-6.46663150232e-04
-5.85694219586e-04
-1.28597292464e-04
-7.25091649766e-04
-5.58851781761e-04
-1.40898248672e-04
-8.82165366041e-04
-5.43707795882e-04
-7.87977503010e-05
-4.76750083055e-06
-5.91290210334e-04
-4.25028135002e-05
-8.38199471262e-05
-5.49291452415e-04
-2.18557220409e-05
-6.51181766062e-05
-5.23306382219e-04
-2.00931769199e-04
-2.38339794669e-04
-6.65489449236e-04
-1.75469266302e-04
-3.85013724720e-04
-6.31836240721e-04
-2.38520411250e-04
-4.81781407361e-04
-6.56549342647e-04
-2.95848670618e-05
-6.15221873282e-04
-4.45830077716e-04
-2.42200909561e-05
-5.01662399949e-04
-4.52419610075e-04
-9.10028846172e-07
-4.37849902808e-04
-4.26862178934e-04
-1.97294920351e-06
-1.40379433190e-04
-4.87921068336e-04
9.41641108578e-06
-3.20146585661e-04
-4.48871475897e-04
-3.87626734703e-06
-2.53055536038e-04
-4.78598623006e-04
-1.73720512269e-04
-1.35462902430e-04
-6.60971056098e-04
-1.14801519361e-04
-1.31716638723e-04
-6.15866500911e-04
-1.14965220728e-04
-1.55062655553e-05
-6.22938880419e-04
-2.42062734809e-04
-6.19282281830e-04
-6.38614002409e-04
-6.35089960126e-05
-7.12422651332e-04
-4.73351036777e-04
-6.98406676859e-05
-7.19188524443e-04
-5.01682223571e-04
-1.07114887317e-04
-8.69494350597e-04
-5.12988465419e-04
-6.88079219857e-05
-2.31556930001e-04
-5.75820117032e-04
-8.05534862335e-05
-3.93400707153e-04
-5.55702142578e-04
-1.30052471592e-04
-4.56810856031e-04
-5.88983069173e-04
-4.32897322950e-05
-1.99718021702e-04
-5.42885636487e-04
-6.34412345247e-05
-4.93405430271e-04
-5.15156254145e-04
-3.30580906335e-05
-4.36555264679e-04
-4.87526500324e-04
-2.32681817061e-05
-2.94587595055e-04
-5.02674921743e-04
-8.25303493065e-05
-6.26393178715e-04
-5.23071498939e-04
-3.46484338444e-04
1.01797676551e-04
-7.90627058898e-04
-2.75456771733e-04
8.78903284085e-05
-7.23937078377e-04
-3.39303085800e-04
4.01650136659e-05
-7.71118143455e-04
-4.41137998235e-04