<?xml version="1.0"?>
<VTKFile type="UnstructuredGrid" version="0.1" byte_order="LittleEndian">
<!--This file was created by meshio v5.3.5-->
<UnstructuredGrid>
<Piece NumberOfPoints="164" NumberOfCells="256">
<Points>
<DataArray type="Float64" Name="Points" NumberOfComponents="3" format="ascii">
-3.62777204087e+01
5.93338573254e+02
-3.00000000000e+03
-8.19500009019e+01
7.40929074508e+02
-2.82410848990e+03
-2.12013651697e+02
8.66050259858e+02
-2.67499486775e+03
-4.06667660990e+02
9.49653563059e+02
-2.57536033081e+03
-6.36277720409e+02
9.79011139066e+02
-2.54037333413e+03
-8.65887779828e+02
9.49653563059e+02
-2.57536033081e+03
-1.06054178912e+03
8.66050259858e+02
-2.67499486775e+03
-1.19060543992e+03
7.40929074508e+02
-2.82410848990e+03
-1.23627772041e+03
5.93338573254e+02
-3.00000000000e+03
-1.19060543992e+03
4.45748072000e+02
-3.17589151010e+03
-1.06054178912e+03
3.20626886651e+02
-3.32500513225e+03
-8.65887779828e+02
2.37023583450e+02
-3.42463966919e+03
-6.36277720409e+02
2.07666007442e+02
-3.45962666587e+03
-4.06667660990e+02
2.37023583450e+02
-3.42463966919e+03
-2.12013651697e+02
3.20626886651e+02
-3.32500513225e+03
-8.19500009019e+01
4.45748072000e+02
-3.17589151010e+03
-9.82301878795e+02
6.57836979237e+02
-2.92313379295e+03
-2.35388105079e+02
5.41264947208e+02
-3.06205893092e+03
-5.69871316028e+02
8.40374504474e+02
-2.70559404147e+03
-7.11529394962e+02
3.50161918889e+02
-3.28980665147e+03
-4.01907468113e+02
3.68697219987e+02
-3.26771713980e+03
-3.01147993968e+02
7.32392613644e+02
-2.83428184780e+03
-8.72831799617e+02
8.02387168171e+02
-2.75086558598e+03
-9.56998297522e+02
4.55590063739e+02
-3.16416228109e+03
-3.83495241035e+02
8.36515227620e+02
-2.71019334853e+03
-5.24957334276e+02
6.99549662937e+02
-2.87342255230e+03
-3.68806365849e+02
6.08303991849e+02
-2.98216490863e+03
-5.60624169490e+02
5.42627281744e+02
-3.06043536384e+03
-7.57039155452e+02
6.08228297855e+02
-2.98225511721e+03
-7.59403827432e+02
4.72412129709e+02
-3.14411452353e+03
-7.22504460330e+02
7.28377464595e+02
-2.83906691610e+03
-2.64377961448e+02
4.33055503539e+02
-3.19101792417e+03
-8.89060199783e+02
3.50161918889e+02
-3.28980665147e+03
-7.33474615242e+02
8.59960767873e+02
-2.68225204170e+03
-1.02657022686e+03
7.66800870444e+02
-2.79327568415e+03
-1.06255581105e+03
5.40549452857e+02
-3.06291162388e+03
-1.90023907337e+02
6.50395874092e+02
-2.93200175674e+03
-5.47512317998e+02
3.06492151437e+02
-3.34185025372e+03
-5.83826678727e+02
4.23842427026e+02
-3.20199764120e+03
-9.03659794049e+02
5.46923384679e+02
-3.05531546774e+03
-4.02488458118e+02
4.86298561892e+02
-3.12756531809e+03
-3.62777204087e+01
5.93338573254e+02
-3.00000000000e+03
-8.19500009019e+01
7.40929074508e+02
-2.82410848990e+03
-2.12013651697e+02
8.66050259858e+02
-2.67499486775e+03
-4.06667660990e+02
9.49653563059e+02
-2.57536033081e+03
-6.36277720409e+02
9.79011139066e+02
-2.54037333413e+03
-8.65887779828e+02
9.49653563059e+02
-2.57536033081e+03
-1.06054178912e+03
8.66050259858e+02
-2.67499486775e+03
-1.19060543992e+03
7.40929074508e+02
-2.82410848990e+03
-1.23627772041e+03
5.93338573254e+02
-3.00000000000e+03
-1.19060543992e+03
4.45748072000e+02
-3.17589151010e+03
-1.06054178912e+03
3.20626886651e+02
-3.32500513225e+03
-8.65887779828e+02
2.37023583450e+02
-3.42463966919e+03
-6.36277720409e+02
2.07666007442e+02
-3.45962666587e+03
-4.06667660990e+02
2.37023583450e+02
-3.42463966919e+03
-2.12013651697e+02
3.20626886651e+02
-3.32500513225e+03
-8.19500009019e+01
4.45748072000e+02
-3.17589151010e+03
-9.82301878795e+02
6.57836979237e+02
-2.92313379295e+03
-2.35388105079e+02
5.41264947208e+02
-3.06205893092e+03
-5.69871316028e+02
8.40374504474e+02
-2.70559404147e+03
-7.11529394962e+02
3.50161918889e+02
-3.28980665147e+03
-4.01907468113e+02
3.68697219987e+02
-3.26771713980e+03
-3.01147993968e+02
7.32392613644e+02
-2.83428184780e+03
-8.72831799617e+02
8.02387168171e+02
-2.75086558598e+03
-9.56998297522e+02
4.55590063739e+02
-3.16416228109e+03
-3.83495241035e+02
8.36515227620e+02
-2.71019334853e+03
-5.24957334276e+02
6.99549662937e+02
-2.87342255230e+03
-3.68806365849e+02
6.08303991849e+02
-2.98216490863e+03
-5.60624169490e+02
5.42627281744e+02
-3.06043536384e+03
-7.57039155452e+02
6.08228297855e+02
-2.98225511721e+03
-7.59403827432e+02
4.72412129709e+02
-3.14411452353e+03
-7.22504460330e+02
7.28377464595e+02
-2.83906691610e+03
-2.64377961448e+02
4.33055503539e+02
-3.19101792417e+03
-8.89060199783e+02
3.50161918889e+02
-3.28980665147e+03
-7.33474615242e+02
8.59960767873e+02
-2.68225204170e+03
-1.02657022686e+03
7.66800870444e+02
-2.79327568415e+03
-1.06255581105e+03
5.40549452857e+02
-3.06291162388e+03
-1.90023907337e+02
6.50395874092e+02
-2.93200175674e+03
-5.47512317998e+02
3.06492151437e+02
-3.34185025372e+03
-5.83826678727e+02
4.23842427026e+02
-3.20199764120e+03
-9.03659794049e+02
5.46923384679e+02
-3.05531546774e+03
-4.02488458118e+02
4.86298561892e+02
-3.12756531809e+03
1.39247167980e+02
4.29658966839e+02
-3.00000000000e+03
9.35748874867e+01
5.77249468093e+02
-2.82410848990e+03
-3.64887633081e+01
7.02370653443e+02
-2.67499486775e+03
-2.31142772601e+02
7.85973956644e+02
-2.57536033081e+03
-4.60752832020e+02
8.15331532651e+02
-2.54037333413e+03
-6.90362891439e+02
7.85973956644e+02
-2.57536033081e+03
-8.85016900732e+02
7.02370653443e+02
-2.67499486775e+03
-1.01508055153e+03
5.77249468093e+02
-2.82410848990e+03
-1.06075283202e+03
4.29658966839e+02
-3.00000000000e+03
-1.01508055153e+03
2.82068465585e+02
-3.17589151010e+03
-8.85016900732e+02
1.56947280236e+02
-3.32500513225e+03
-6.90362891439e+02
7.33439770346e+01
-3.42463966919e+03
-4.60752832020e+02
4.39864010275e+01
-3.45962666587e+03
-2.31142772601e+02
7.33439770346e+01
-3.42463966919e+03
-3.64887633081e+01
1.56947280236e+02
-3.32500513225e+03
9.35748874867e+01
2.82068465585e+02
-3.17589151010e+03
-3.85501157466e+02
1.86482312474e+02
-3.28980665147e+03
-5.42147648576e+02
6.95030235725e+02
-2.68374283693e+03
-8.39068547352e+02
3.81288122828e+02
-3.05764612713e+03
-7.08121434506e+01
4.83655900143e+02
-2.93564896075e+03
-7.81473409133e+02
5.67407476355e+02
-2.83583771891e+03
-6.34476559427e+02
2.26776986862e+02
-3.24178532851e+03
-2.34565328910e+02
6.48692719502e+02
-2.73896573837e+03
-1.42041358264e+02
2.85161188911e+02
-3.17220574597e+03
-1.44990189488e+01
3.72601666001e+02
-3.06799824326e+03
-2.65198556211e+02
4.05153668847e+02
-3.02920427692e+03
-2.55159122143e+02
5.40647758235e+02
-2.86772870912e+03
-4.63043301905e+02
4.99903277397e+02
-2.91628609053e+03
-5.29764428503e+02
3.64241917225e+02
-3.07796100389e+03
-6.80842827495e+02
4.59203661243e+02
-2.96479000430e+03
-3.76782071951e+02
3.02472868463e+02
-3.15157448967e+03
-8.24371166880e+01
5.92144412527e+02
-2.80635738636e+03
-7.13535311394e+02
6.72835621205e+02
-2.71019334853e+03
-3.74101443840e+02
7.12031896534e+02
-2.66348104659e+03
-9.07006645091e+02
4.86716267677e+02
-2.93200175674e+03
-8.20248311744e+02
2.73234816746e+02
-3.18641904284e+03
-2.26842404126e+02
1.96767464581e+02
-3.27754928450e+03
-5.42773360088e+02
1.32647419350e+02
-3.35396457876e+03
-6.10120761438e+02
5.73350861291e+02
-2.82875466856e+03
-7.00880134904e+02
3.40949100981e+02
-3.10572030134e+03
-4.13189601135e+02
6.11609458114e+02
-2.78315984835e+03
1.39247167980e+02
4.29658966839e+02
-3.00000000000e+03
9.35748874867e+01
5.77249468093e+02
-2.82410848990e+03
-3.64887633081e+01
7.02370653443e+02
-2.67499486775e+03
-2.31142772601e+02
7.85973956644e+02
-2.57536033081e+03
-4.60752832020e+02
8.15331532651e+02
-2.54037333413e+03
-6.90362891439e+02
7.85973956644e+02
-2.57536033081e+03
-8.85016900732e+02
7.02370653443e+02
-2.67499486775e+03
-1.01508055153e+03
5.77249468093e+02
-2.82410848990e+03
-1.06075283202e+03
4.29658966839e+02
-3.00000000000e+03
-1.01508055153e+03
2.82068465585e+02
-3.17589151010e+03
-8.85016900732e+02
1.56947280236e+02
-3.32500513225e+03
-6.90362891439e+02
7.33439770346e+01
-3.42463966919e+03
-4.60752832020e+02
4.39864010275e+01
-3.45962666587e+03
-2.31142772601e+02
7.33439770346e+01
-3.42463966919e+03
-3.64887633081e+01
1.56947280236e+02
-3.32500513225e+03
9.35748874867e+01
2.82068465585e+02
-3.17589151010e+03
-3.85501157466e+02
1.86482312474e+02
-3.28980665147e+03
-5.42147648576e+02
6.95030235725e+02
-2.68374283693e+03
-8.39068547352e+02
3.81288122828e+02
-3.05764612713e+03
-7.08121434506e+01
4.83655900143e+02
-2.93564896075e+03
-7.81473409133e+02
5.67407476355e+02
-2.83583771891e+03
-6.34476559427e+02
2.26776986862e+02
-3.24178532851e+03
-2.34565328910e+02
6.48692719502e+02
-2.73896573837e+03
-1.42041358264e+02
2.85161188911e+02
-3.17220574597e+03
-1.44990189488e+01
3.72601666001e+02
-3.06799824326e+03
-2.65198556211e+02
4.05153668847e+02
-3.02920427692e+03
-2.55159122143e+02
5.40647758235e+02
-2.86772870912e+03
-4.63043301905e+02
4.99903277397e+02
-2.91628609053e+03
-5.29764428503e+02
3.64241917225e+02
-3.07796100389e+03
-6.80842827495e+02
4.59203661243e+02
-2.96479000430e+03
-3.76782071951e+02
3.02472868463e+02
-3.15157448967e+03
-8.24371166880e+01
5.92144412527e+02
-2.80635738636e+03
-7.13535311394e+02
6.72835621205e+02
-2.71019334853e+03
-3.74101443840e+02
7.12031896534e+02
-2.66348104659e+03
-9.07006645091e+02
4.86716267677e+02
-2.93200175674e+03
-8.20248311744e+02
2.73234816746e+02
-3.18641904284e+03
-2.26842404126e+02
1.96767464581e+02
-3.27754928450e+03
-5.42773360088e+02
1.32647419350e+02
-3.35396457876e+03
-6.10120761438e+02
5.73350861291e+02
-2.82875466856e+03
-7.00880134904e+02
3.40949100981e+02
-3.10572030134e+03
-4.13189601135e+02
6.11609458114e+02
-2.78315984835e+03

</DataArray>
</Points>
<Cells>
<DataArray type="Int64" Name="connectivity" format="ascii">
0
1
36
0
15
17
0
17
36
1
2
21
1
21
36
2
3
24
2
21
24
3
4
18
3
18
24
4
5
33
4
18
33
5
6
22
5
22
33
6
7
34
6
22
34
7
8
16
7
16
34
8
9
35
8
16
35
9
10
23
9
23
35
10
11
32
10
23
32
11
12
19
11
19
32
12
13
37
12
19
37
13
14
20
13
20
37
14
15
31
14
20
31
15
17
31
16
22
30
16
22
34
16
28
30
16
28
39
16
35
39
17
26
36
17
26
40
17
31
40
18
24
25
18
25
30
18
30
33
19
29
32
19
29
38
19
37
38
20
31
40
20
37
38
20
38
40
21
24
25
21
25
26
21
26
36
22
30
33
23
29
32
23
29
39
23
35
39
25
26
27
25
27
28
25
28
30
26
27
40
27
28
29
27
29
38
27
38
40
28
29
39
41
42
77
41
56
58
41
58
77
42
43
62
42
62
77
43
44
65
43
62
65
44
45
59
44
59
65
45
46
74
45
59
74
46
47
63
46
63
74
47
48
75
47
63
75
48
49
57
48
57
75
49
50
76
49
57
76
50
51
64
50
64
76
51
52
73
51
64
73
52
53
60
52
60
73
53
54
78
53
60
78
54
55
61
54
61
78
55
56
72
55
61
72
56
58
72
57
63
71
57
63
75
57
69
71
57
69
80
57
76
80
58
67
77
58
67
81
58
72
81
59
65
66
59
66
71
59
71
74
60
70
73
60
70
79
60
78
79
61
72
81
61
78
79
61
79
81
62
65
66
62
66
67
62
67
77
63
71
74
64
70
73
64
70
80
64
76
80
66
67
68
66
68
69
66
69
71
67
68
81
68
69
70
68
70
79
68
79
81
69
70
80
82
83
101
82
97
106
82
101
106
83
84
113
83
101
113
84
85
104
84
104
113
85
86
115
85
104
115
86
87
99
86
99
115
87
88
114
87
99
114
88
89
102
88
102
114
89
90
116
89
102
116
90
91
100
90
100
116
91
92
117
91
100
117
92
93
103
92
103
117
93
94
119
93
103
119
94
95
98
94
98
119
95
96
118
95
98
118
96
97
105
96
105
118
97
105
106
98
103
112
98
103
119
98
112
118
99
114
120
99
115
122
99
120
122
100
111
116
100
111
121
100
117
121
101
106
107
101
107
108
101
108
113
102
111
116
102
111
120
102
114
120
103
110
112
103
110
121
103
117
121
104
108
113
104
108
122
104
115
122
105
106
107
105
107
112
105
112
118
107
108
109
107
109
110
107
110
112
108
109
122
109
110
111
109
111
120
109
120
122
110
111
121
123
124
142
123
138
147
123
142
147
124
125
154
124
142
154
125
126
145
125
145
154
126
127
156
126
145
156
127
128
140
127
140
156
128
129
155
128
140
155
129
130
143
129
143
155
130
131
157
130
143
157
131
132
141
131
141
157
132
133
158
132
141
158
133
134
144
133
144
158
134
135
160
134
144
160
135
136
139
135
139
160
136
137
159
136
139
159
137
138
146
137
146
159
138
146
147
139
144
153
139
144
160
139
153
159
140
155
161
140
156
163
140
161
163
141
152
157
141
152
162
141
158
162
142
147
148
142
148
149
142
149
154
143
152
157
143
152
161
143
155
161
144
151
153
144
151
162
144
158
162
145
149
154
145
149
163
145
156
163
146
147
148
146
148
153
146
153
159
148
149
150
148
150
151
148
151
153
149
150
163
150
151
152
150
152
161
150
161
163
151
152
162

</DataArray>
<DataArray type="Int64" Name="offsets" format="ascii">
3
6
9
12
15
18
21
24
27
30
33
36
39
42
45
48
51
54
57
60
63
66
69
72
75
78
81
84
87
90
93
96
99
102
105
108
111
114
117
120
123
126
129
132
135
138
141
144
147
150
153
156
159
162
165
168
171
174
177
180
183
186
189
192
195
198
201
204
207
210
213
216
219
222
225
228
231
234
237
240
243
246
249
252
255
258
261
264
267
270
273
276
279
282
285
288
291
294
297
300
303
306
309
312
315
318
321
324
327
330
333
336
339
342
345
348
351
354
357
360
363
366
369
372
375
378
381
384
387
390
393
396
399
402
405
408
411
414
417
420
423
426
429
432
435
438
441
444
447
450
453
456
459
462
465
468
471
474
477
480
483
486
489
492
495
498
501
504
507
510
513
516
519
522
525
528
531
534
537
540
543
546
549
552
555
558
561
564
567
570
573
576
579
582
585
588
591
594
597
600
603
606
609
612
615
618
621
624
627
630
633
636
639
642
645
648
651
654
657
660
663
666
669
672
675
678
681
684
687
690
693
696
699
702
705
708
711
714
717
720
723
726
729
732
735
738
741
744
747
750
753
756
759
762
765
768

</DataArray>
<DataArray type="Int64" Name="types" format="ascii">
5
5
5
5
5
5
5
5
5
5
5
5
5
5
5
5
5
5
5
5
5
5
5
5
5
5
5
5
5
5
5
5
5
5
5
5
5
5
5
5
5
5
5
5
5
5
5
5
5
5
5
5
5
5
5
5
5
5
5
5
5
5
5
5
5
5
5
5
5
5
5
5
5
5
5
5
5
5
5
5
5
5
5
5
5
5
5
5
5
5
5
5
5
5
5
5
5
5
5
5
5
5
5
5
5
5
5
5
5
5
5
5
5
5
5
5
5
5
5
5
5
5
5
5
5
5
5
5
5
5
5
5
5
5
5
5
5
5
5
5
5
5
5
5
5
5
5
5
5
5
5
5
5
5
5
5
5
5
5
5
5
5
5
5
5
5
5
5
5
5
5
5
5
5
5
5
5
5
5
5
5
5
5
5
5
5
5
5
5
5
5
5
5
5
5
5
5
5
5
5
5
5
5
5
5
5
5
5
5
5
5
5
5
5
5
5
5
5
5
5
5
5
5
5
5
5
5
5
5
5
5
5
5
5
5
5
5
5
5
5
5
5
5
5
5
5
5
5
5
5
5
5
5
5
5
5

</DataArray>
</Cells>
<PointData>
<DataArray type="Int64" Name="node_id" format="ascii">
0
1
2
3
4
5
6
7
8
9
10
11
12
13
14
15
16
17
18
19
20
21
22
23
24
25
26
27
28
29
30
31
32
33
34
35
36
37
38
39
40
41
42
43
44
45
46
47
48
49
50
51
52
53
54
55
56
57
58
59
60
61
62
63
64
65
66
67
68
69
70
71
72
73
74
75
76
77
78
79
80
81
0
1
2
3
4
5
6
7
8
9
10
11
12
13
14
15
16
17
18
19
20
21
22
23
24
25
26
27
28
29
30
31
32
33
34
35
36
37
38
39
40
41
42
43
44
45
46
47
48
49
50
51
52
53
54
55
56
57
58
59
60
61
62
63
64
65
66
67
68
69
70
71
72
73
74
75
76
77
78
79
80
81

</DataArray>
</PointData>
<CellData>
<DataArray type="Int64" Name="cell_id" format="ascii">
0
1
2
3
4
5
6
7
8
9
10
11
12
13
14
15
16
17
18
19
20
21
22
23
24
25
26
27
28
29
30
31
32
33
34
35
36
37
38
39
40
41
42
43
44
45
46
47
48
49
50
51
52
53
54
55
56
57
58
59
60
61
62
63
64
65
66
67
68
69
70
71
72
73
74
75
76
77
78
79
80
81
82
83
84
85
86
87
88
89
90
91
92
93
94
95
96
97
98
99
100
101
102
103
104
105
106
107
108
109
110
111
112
113
114
115
116
117
118
119
120
121
122
123
124
125
126
127
0
1
2
3
4
5
6
7
8
9
10
11
12
13
14
15
16
17
18
19
20
21
22
23
24
25
26
27
28
29
30
31
32
33
34
35
36
37
38
39
40
41
42
43
44
45
46
47
48
49
50
51
52
53
54
55
56
57
58
59
60
61
62
63
64
65
66
67
68
69
70
71
72
73
74
75
76
77
78
79
80
81
82
83
84
85
86
87
88
89
90
91
92
93
94
95
96
97
98
99
100
101
102
103
104
105
106
107
108
109
110
111
112
113
114
115
116
117
118
119
120
121
122
123
124
125
126
127

</DataArray>
<DataArray type="Int64" Name="grid_dim" format="ascii">
2
2
2
2
2
2
2
2
2
2
2
2
2
2
2
2
2
2
2
2
2
2
2
2
2
2
2
2
2
2
2
2
2
2
2
2
2
2
2
2
2
2
2
2
2
2
2
2
2
2
2
2
2
2
2
2
2
2
2
2
2
2
2
2
2
2
2
2
2
2
2
2
2
2
2
2
2
2
2
2
2
2
2
2
2
2
2
2
2
2
2
2
2
2
2
2
2
2
2
2
2
2
2
2
2
2
2
2
2
2
2
2
2
2
2
2
2
2
2
2
2
2
2
2
2
2
2
2
2
2
2
2
2
2
2
2
2
2
2
2
2
2
2
2
2
2
2
2
2
2
2
2
2
2
2
2
2
2
2
2
2
2
2
2
2
2
2
2
2
2
2
2
2
2
2
2
2
2
2
2
2
2
2
2
2
2
2
2
2
2
2
2
2
2
2
2
2
2
2
2
2
2
2
2
2
2
2
2
2
2
2
2
2
2
2
2
2
2
2
2
2
2
2
2
2
2
2
2
2
2
2
2
2
2
2
2
2
2
2
2
2
2
2
2
2
2
2
2
2
2
2
2
2
2
2
2

</DataArray>
<DataArray type="Float64" Name="interface_darcy_flux" format="ascii">
4.57390042400e-12
5.85012517042e-12
3.59740556941e-12
5.57363328158e-12
3.37807910770e-12
3.25174652000e-12
3.39567266190e-12
3.14020588898e-12
2.91269699934e-12
1.92027420843e-12
2.04380881564e-12
1.65960930476e-12
1.05426056430e-12
1.39826311347e-12
8.86896371374e-13
2.33518563065e-12
1.08199355214e-12
1.75864098634e-12
1.53117956602e-12
3.23386198158e-12
1.89645795483e-12
3.24706929256e-12
2.77141517920e-12
5.78122719027e-12
3.48004709915e-12
4.69957881340e-12
3.63354614549e-12
5.57121641551e-12
3.56220111157e-12
5.89273847954e-12
3.75558336570e-12
3.76229327332e-12
4.54018320435e-12
1.32816365070e-12
4.67689552084e-12
3.47054398917e-12
2.66541987542e-12
2.98695347946e-12
3.15200545510e-12
2.90682038527e-12
4.15268451995e-12
4.14498110335e-12
3.06150482563e-12
3.66850610373e-12
3.16780646950e-12
2.92003249266e-12
2.86532846423e-12
3.29044637700e-12
3.64212771820e-12
4.23217149513e-12
4.17781624266e-12
3.22149068128e-12
2.53626917389e-12
3.73600832245e-12
2.88290409130e-12
2.07746378053e-12
4.62692070608e-12
5.35335565542e-12
3.98068335594e-12
3.57551511466e-12
4.39514542116e-12
3.59727158964e-12
3.37378204135e-12
3.32958614750e-12
-2.90661301444e-12
-3.56092202137e-12
-2.23865624243e-12
-3.55250230203e-12
-1.89574884902e-12
-2.88808836799e-12
-2.28666722573e-12
-4.09433897865e-12
-2.24257924302e-12
-3.29166420088e-12
-2.34369964228e-12
-3.48812280135e-12
-1.89579602063e-12
-2.54522523706e-12
-1.92444401493e-12
-3.94833175016e-12
-1.92536206454e-12
-3.20723518149e-12
-2.39807906371e-12
-4.86994603962e-12
-2.42849152026e-12
-3.10662779884e-12
-2.53922813379e-12
-3.94218543047e-12
-1.88088642148e-12
-3.42494044319e-12
-2.37260654473e-12
-3.22082992876e-12
-2.27711565653e-12
-1.96323541884e-12
-1.64829086141e-12
-1.72706383029e-12
-2.13867206005e-12
-1.55992522720e-12
-1.94783438506e-12
-1.54643256389e-12
-1.48330277369e-12
-1.37084479429e-12
-1.21979579178e-12
-1.16782701535e-12
-1.87047558595e-12
-1.68456160413e-12
-1.53075284065e-12
-1.64081740684e-12
-1.29334617898e-12
-1.35135039530e-12
-1.18108311416e-12
-1.54982878353e-12
-1.51691503031e-12
-1.87599817595e-12
-1.62941872073e-12
-1.45709631566e-12
-1.29656995571e-12
-1.80697378475e-12
-1.23179070700e-12
-1.15244794234e-12
-1.65638740646e-12
-1.88892440058e-12
-1.49950865255e-12
-1.32949840984e-12
-1.62021297250e-12
-1.37587939294e-12
-1.30324207913e-12
-1.30697840790e-12
5.08689704297e-12
3.55392337162e-12
3.02917727724e-12
3.81115964753e-12
2.83671318901e-12
5.55703518985e-12
2.97769013461e-12
4.80542021433e-12
3.41398418279e-12
4.77038409048e-12
2.88802545552e-12
4.30530022560e-12
2.92280637664e-12
6.17580387655e-12
3.32983663330e-12
3.77023600664e-12
2.95961849765e-12
5.29987724380e-12
2.79208693789e-12
5.07709662796e-12
3.25205630761e-12
5.75221001601e-12
3.71461423368e-12
3.48718840873e-12
2.48929384429e-12
5.96179796969e-12
2.92838191637e-12
4.41899941540e-12
2.97533140597e-12
4.54082046421e-12
2.69467011510e-12
2.84841688609e-12
2.80786099749e-12
2.25985942705e-12
1.90486593891e-12
2.16073255295e-12
1.90141362174e-12
2.27536920839e-12
2.29340299408e-12
1.70730063544e-12
1.55900285602e-12
2.96217913529e-12
2.67192677709e-12
2.31116245525e-12
2.26841309590e-12
1.80808473868e-12
1.94178674056e-12
2.50940016155e-12
2.00549269307e-12
1.92531647272e-12
1.98550316122e-12
1.88341460938e-12
1.97560830351e-12
2.75521752892e-12
2.47888385777e-12
2.30858421779e-12
2.53286163012e-12
2.80880228116e-12
1.95430059866e-12
2.00958280162e-12
2.28458776603e-12
1.98336428929e-12
1.92343767802e-12
1.79746997895e-12
-8.84077543603e-13
-2.96259317643e-13
-4.85171549215e-13
-1.00722756057e-12
-9.88707791899e-13
-3.07589014083e-12
-2.07641403591e-12
-3.89681900735e-12
-2.98916705929e-12
-4.84343837256e-12
-3.22388408739e-12
-4.03928873383e-12
-3.20238967824e-12
-5.88428453660e-12
-3.40696891768e-12
-4.08232655197e-12
-3.56515554268e-12
-5.80270973197e-12
-3.54346484249e-12
-4.46873176092e-12
-3.57872860366e-12
-4.38083151880e-12
-4.10950755849e-12
-8.52358656949e-13
-2.28651449354e-12
-1.08473417998e-12
-1.16303591387e-12
-4.54475064689e-13
-6.51047418811e-13
-6.73471197312e-13
-5.03706142445e-13
-4.98262243652e-13
-4.86486110282e-12
-3.00258616839e-12
-2.83343624852e-12
-3.06918924998e-12
-2.65560006893e-12
-3.46657714586e-12
-3.65059946877e-12
-2.83913202887e-12
-2.37837783514e-12
-3.43779040951e-12
-4.31811050536e-12
-2.91332836377e-12
-3.57273727524e-12
-3.14337156465e-12
-2.86254049771e-12
-4.64258239926e-12
-3.48921273367e-12
-3.02754102529e-12
-2.77427501672e-12
-3.04439083058e-12
-2.73952352373e-12
-3.41852359027e-12
-4.65918517962e-12
-3.10427739405e-12
-4.75240764289e-12
-5.67430222854e-12
-3.97826688042e-12
-3.56144749523e-12
-4.39776188794e-12
-3.62526386879e-12
-3.32089153912e-12
-3.23555989449e-12

</DataArray>
<DataArray type="Int64" Name="interface_id" format="ascii">
0
0
0
0
0
0
0
0
0
0
0
0
0
0
0
0
0
0
0
0
0
0
0
0
0
0
0
0
0
0
0
0
0
0
0
0
0
0
0
0
0
0
0
0
0
0
0
0
0
0
0
0
0
0
0
0
0
0
0
0
0
0
0
0
0
0
0
0
0
0
0
0
0
0
0
0
0
0
0
0
0
0
0
0
0
0
0
0
0
0
0
0
0
0
0
0
0
0
0
0
0
0
0
0
0
0
0
0
0
0
0
0
0
0
0
0
0
0
0
0
0
0
0
0
0
0
0
0
1
1
1
1
1
1
1
1
1
1
1
1
1
1
1
1
1
1
1
1
1
1
1
1
1
1
1
1
1
1
1
1
1
1
1
1
1
1
1
1
1
1
1
1
1
1
1
1
1
1
1
1
1
1
1
1
1
1
1
1
1
1
1
1
1
1
1
1
1
1
1
1
1
1
1
1
1
1
1
1
1
1
1
1
1
1
1
1
1
1
1
1
1
1
1
1
1
1
1
1
1
1
1
1
1
1
1
1
1
1
1
1
1
1
1
1
1
1
1
1
1
1
1
1
1
1
1
1

</DataArray>
<DataArray type="Int64" Name="is_mortar" format="ascii">
1
1
1
1
1
1
1
1
1
1
1
1
1
1
1
1
1
1
1
1
1
1
1
1
1
1
1
1
1
1
1
1
1
1
1
1
1
1
1
1
1
1
1
1
1
1
1
1
1
1
1
1
1
1
1
1
1
1
1
1
1
1
1
1
1
1
1
1
1
1
1
1
1
1
1
1
1
1
1
1
1
1
1
1
1
1
1
1
1
1
1
1
1
1
1
1
1
1
1
1
1
1
1
1
1
1
1
1
1
1
1
1
1
1
1
1
1
1
1
1
1
1
1
1
1
1
1
1
1
1
1
1
1
1
1
1
1
1
1
1
1
1
1
1
1
1
1
1
1
1
1
1
1
1
1
1
1
1
1
1
1
1
1
1
1
1
1
1
1
1
1
1
1
1
1
1
1
1
1
1
1
1
1
1
1
1
1
1
1
1
1
1
1
1
1
1
1
1
1
1
1
1
1
1
1
1
1
1
1
1
1
1
1
1
1
1
1
1
1
1
1
1
1
1
1
1
1
1
1
1
1
1
1
1
1
1
1
1
1
1
1
1
1
1
1
1
1
1
1
1
1
1
1
1
1
1

</DataArray>
<DataArray type="Int64" Name="mortar_side" format="ascii">
1
1
1
1
1
1
1
1
1
1
1
1
1
1
1
1
1
1
1
1
1
1
1
1
1
1
1
1
1
1
1
1
1
1
1
1
1
1
1
1
1
1
1
1
1
1
1
1
1
1
1
1
1
1
1
1
1
1
1
1
1
1
1
1
2
2
2
2
2
2
2
2
2
2
2
2
2
2
2
2
2
2
2
2
2
2
2
2
2
2
2
2
2
2
2
2
2
2
2
2
2
2
2
2
2
2
2
2
2
2
2
2
2
2
2
2
2
2
2
2
2
2
2
2
2
2
2
2
1
1
1
1
1
1
1
1
1
1
1
1
1
1
1
1
1
1
1
1
1
1
1
1
1
1
1
1
1
1
1
1
1
1
1
1
1
1
1
1
1
1
1
1
1
1
1
1
1
1
1
1
1
1
1
1
1
1
1
1
1
1
1
1
2
2
2
2
2
2
2
2
2
2
2
2
2
2
2
2
2
2
2
2
2
2
2
2
2
2
2
2
2
2
2
2
2
2
2
2
2
2
2
2
2
2
2
2
2
2
2
2
2
2
2
2
2
2
2
2
2
2
2
2
2
2
2
2

</DataArray>
<DataArray type="Float64" Name="u_interface" NumberOfComponents="3" format="ascii">
-2.76598458074e-04
9.56537776911e-05
-7.16086020974e-04
-1.92055178378e-04
4.67909801557e-05
-6.41676127488e-04
-2.54451935092e-04
1.94605183150e-05
-6.83835279098e-04
-3.90776715815e-04
-6.79817101309e-06
-7.68275377025e-04
-3.44089321637e-04
-5.59297910274e-06
-7.44170777996e-04
-5.34503520505e-04
-1.76561893914e-04
-8.21210396257e-04
-4.59339909541e-04
-1.30222501549e-04
-7.95277485520e-04
-6.44899451451e-04
-4.58047447783e-04
-8.41238175047e-04
-5.80677509166e-04
-3.38867523987e-04
-8.32827066415e-04
-6.95539893769e-04
-7.46122837954e-04
-8.26309103710e-04
-6.56731991495e-04
-6.08888393072e-04
-8.34501183546e-04
-6.89339810794e-04
-1.00628934828e-03
-8.02789987719e-04
-6.80068865369e-04
-8.66952207904e-04
-8.13835325109e-04
-6.43520822310e-04
-1.20901409085e-03
-7.58253696659e-04
-6.53346028761e-04
-1.08671236267e-03
-7.84245394851e-04
-5.80535578362e-04
-1.28947258811e-03
-7.06174829783e-04
-6.14625069482e-04
-1.20282186044e-03
-7.32556032253e-04
-5.01685285773e-04
-1.31440291991e-03
-6.38770085403e-04
-5.46677987075e-04
-1.25140945026e-03
-6.73869057500e-04
-4.08228167348e-04
-1.18459853469e-03
-5.73374328728e-04
-4.64684333323e-04
-1.21160917597e-03
-6.09340159724e-04
-3.13217124323e-04
-1.00519937417e-03
-5.07496547138e-04
-3.71526471182e-04
-1.07430570577e-03
-5.48251868907e-04
-2.33461637142e-04
-7.52534591687e-04
-4.83958196851e-04
-2.91618477682e-04
-8.71408678613e-04
-5.13567208077e-04
-1.60902356837e-04
-4.88191657509e-04
-4.80087363476e-04
-2.18425865961e-04
-6.31263491243e-04
-5.01689524659e-04
-1.36462819288e-04
-2.51473498889e-04
-5.20536991466e-04
-1.71920870498e-04
-3.91017880221e-04
-5.16132921768e-04
-1.37511291916e-04
-6.01715015451e-05
-5.66498686085e-04
-1.55582496315e-04
-1.87405616598e-04
-5.54596227505e-04
-1.83774279422e-04
-5.31619157536e-05
-6.08298928353e-04
-5.88987497194e-04
-9.36043487709e-04
-7.52332214607e-04
-6.18700774330e-04
-1.07282909260e-03
-7.56978650144e-04
-5.33630759538e-04
-8.86399811139e-04
-7.18225848564e-04
-5.08050050113e-04
-9.74662892630e-04
-6.82415632210e-04
-5.16555182314e-04
-1.11247491966e-03
-6.66667538546e-04
-2.95776376590e-04
-1.20964289343e-04
-6.88657957169e-04
-2.88073364608e-04
-2.18975849658e-04
-6.63361751083e-04
-2.34911136251e-04
-1.84995758424e-04
-6.25045421602e-04
-5.27011916551e-04
-3.99321284664e-04
-7.97265744134e-04
-5.37895698254e-04
-5.63920292196e-04
-7.78280964504e-04
-6.03642675345e-04
-6.58836786729e-04
-8.00674492119e-04
-3.39278349633e-04
-8.39733280318e-04
-5.60525079514e-04
-3.23247734271e-04
-7.04544573615e-04
-5.77213642885e-04
-2.64489141730e-04
-6.09294418396e-04
-5.45662677746e-04
-2.18799524171e-04
-2.62911662267e-04
-5.92024643701e-04
-2.34409653332e-04
-4.70747152888e-04
-5.52779314789e-04
-2.55143101931e-04
-4.02346621653e-04
-5.90803986205e-04
-4.61932813168e-04
-2.78580462256e-04
-7.78333360164e-04
-4.03215496814e-04
-2.81393691456e-04
-7.40208422581e-04
-3.48341045477e-04
-1.37365814411e-04
-7.24346830776e-04
-6.19074935199e-04
-8.10588334799e-04
-7.89730632129e-04
-3.85191759914e-04
-9.52154911187e-04
-5.78725885456e-04
-4.29723510504e-04
-9.63840348179e-04
-6.16182852921e-04
-4.66971903696e-04
-1.09750786538e-03
-6.28161725143e-04
-3.91349315241e-04
-4.08459562455e-04
-7.06018261467e-04
-4.36267148425e-04
-5.91926484751e-04
-7.01698898885e-04
-4.98535635921e-04
-6.63503095639e-04
-7.34101616007e-04
-3.27433854308e-04
-3.62559258705e-04
-6.64615335963e-04
-4.09637921638e-04
-7.10640887624e-04
-6.53037704219e-04
-3.49364415152e-04
-6.33167421576e-04
-6.18884982558e-04
-3.11997028540e-04
-4.67957116102e-04
-6.26010220689e-04
-4.45741613903e-04
-8.72009938495e-04
-6.48936131024e-04
-1.41692258374e-04
1.59917997461e-04
-6.64073220219e-04
-6.25942589960e-05
1.15053939737e-04
-5.84715338454e-04
-8.80015040701e-05
1.03765516184e-04
-6.14290754959e-04
-2.31950997864e-04
6.47667228043e-05
-7.11447123996e-04
-1.55307089881e-04
8.52152294906e-05
-6.70442165080e-04
-3.22289321840e-04
-8.65918894597e-05
-7.51393925661e-04
-2.48101036118e-04
-2.99401603694e-05
-7.14204115460e-04
-3.63382900630e-04
-3.23767423516e-04
-7.46644834733e-04
-3.00617595796e-04
-2.04685485739e-04
-7.24021684567e-04
-3.94719095581e-04
-5.95569073185e-04
-7.22591506747e-04
-3.32354624020e-04
-4.46393498032e-04
-7.13710826747e-04
-3.79705144246e-04
-8.49647743433e-04
-6.93581250060e-04
-3.40886890350e-04
-6.98772778215e-04
-6.79688255991e-04
-3.53365230433e-04
-1.06733719426e-03
-6.55703365395e-04
-3.30292708928e-04
-8.99643474498e-04
-6.68465580752e-04
-2.59983472285e-04
-1.10964595497e-03
-5.92743229987e-04
-2.56539946710e-04
-1.02319063619e-03
-6.07651412604e-04
-2.10173676095e-04
-1.13781147233e-03
-5.40930815504e-04
-1.97158913883e-04
-1.05138067268e-03
-5.51541323382e-04
-1.50522657180e-04
-1.01643205289e-03
-4.91393016878e-04
-1.48641167342e-04
-1.00989017916e-03
-5.05841410851e-04
-1.00882481026e-04
-8.40485323056e-04
-4.52035802518e-04
-1.00142382145e-04
-8.73186370750e-04
-4.58411546323e-04
-3.80707554897e-05
-6.03578828966e-04
-4.15913286358e-04
-3.87070915898e-05
-6.81363978178e-04
-4.23101235384e-04
-1.56406195012e-05
-3.86716560873e-04
-4.17545490047e-04
-1.43373925098e-05
-4.76464585452e-04
-4.08728702953e-04
3.63084796924e-06
-1.67668533009e-04
-4.53776068591e-04
2.12420515289e-06
-2.76472876003e-04
-4.43742058316e-04
-8.02302798344e-06
1.19281412270e-05
-5.05467612193e-04
5.65786681258e-06
-9.57477485435e-05
-4.76611572210e-04
-2.83710774012e-05
2.81807776232e-05
-5.40561947147e-04
-2.00511939135e-04
-7.02037018976e-04
-6.19080752820e-04
-2.33827223712e-04
-8.41415468481e-04
-6.26410219652e-04
-1.49620460529e-04
-6.46663152735e-04
-5.85694217008e-04
-1.28597292516e-04
-7.25091652245e-04
-5.58851779729e-04
-1.40898249089e-04
-8.82165368007e-04
-5.43707794440e-04
-7.87977444504e-05
-4.76750442476e-06
-5.91290202476e-04
-4.25028074249e-05
-8.38199517050e-05
-5.49291443087e-04
-2.18557176058e-05
-6.51181804121e-05
-5.23306374357e-04
-2.00931762474e-04
-2.38339798575e-04
-6.65489442490e-04
-1.75469258934e-04
-3.85013730000e-04
-6.31836232566e-04
-2.38520406535e-04
-4.81781411791e-04
-6.56549337832e-04
-2.95848669944e-05
-6.15221875787e-04
-4.45830076740e-04
-2.42200906892e-05
-5.01662402671e-04
-4.52419608720e-04
-9.10028558303e-07
-4.37849905630e-04
-4.26862177708e-04
-1.97294582955e-06
-1.40379436998e-04
-4.87921061365e-04
9.41641177503e-06
-3.20146588905e-04
-4.48871474221e-04
-3.87626599984e-06
-2.53055539713e-04
-4.78598620072e-04
-1.73720504814e-04
-1.35462905997e-04
-6.60971048746e-04
-1.14801511208e-04
-1.31716643456e-04
-6.15866490906e-04
-1.14965214331e-04
-1.55062689421e-05
-6.22938872632e-04
-2.42062734112e-04
-6.19282284060e-04
-6.38613999525e-04
-6.35089959468e-05
-7.12422653759e-04
-4.73351035788e-04
-6.98406677289e-05
-7.19188526938e-04
-5.01682222280e-04
-1.07114887699e-04
-8.69494352677e-04
-5.12988464302e-04
-6.88079197631e-05
-2.31556933058e-04
-5.75820112568e-04
-8.05534850971e-05
-3.93400710655e-04
-5.55702139176e-04
-1.30052470319e-04
-4.56810859083e-04
-5.88983065468e-04
-4.32897302792e-05
-1.99718025303e-04
-5.42885632239e-04
-6.34412340656e-05
-4.93405433248e-04
-5.15156251823e-04
-3.30580900439e-05
-4.36555267720e-04
-4.87526498151e-04
-2.32681805795e-05
-2.94587598716e-04
-5.02674918538e-04
-8.25303491137e-05
-6.26393181430e-04
-5.23071497064e-04
-3.46484339995e-04
1.01797674681e-04
-7.90627058681e-04
-2.75456772338e-04
8.78903266841e-05
-7.23937077925e-04
-3.39303086882e-04
4.01650114867e-05
-7.71118142975e-04
-4.41138000189e-04