<?xml version="1.0"?>
<VTKFile type="UnstructuredGrid" version="0.1" byte_order="LittleEndian">
<!--This file was created by meshio v5.3.5-->
<UnstructuredGrid>
<Piece NumberOfPoints="82" NumberOfCells="128">
<Points>
<DataArray type="Float64" Name="Points" NumberOfComponents="3" format="ascii">
-3.62777204087e+01
5.93338573254e+02
-3.00000000000e+03
-8.19500009019e+01
7.40929074508e+02
-2.82410848990e+03
-2.12013651697e+02
8.66050259858e+02
-2.67499486775e+03
-4.06667660990e+02
9.49653563059e+02
-2.57536033081e+03
-6.36277720409e+02
9.79011139066e+02
-2.54037333413e+03
-8.65887779828e+02
9.49653563059e+02
-2.57536033081e+03
-1.06054178912e+03
8.66050259858e+02
-2.67499486775e+03
-1.19060543992e+03
7.40929074508e+02
-2.82410848990e+03
-1.23627772041e+03
5.93338573254e+02
-3.00000000000e+03
-1.19060543992e+03
4.45748072000e+02
-3.17589151010e+03
-1.06054178912e+03
3.20626886651e+02
-3.32500513225e+03
-8.65887779828e+02
2.37023583450e+02
-3.42463966919e+03
-6.36277720409e+02
2.07666007442e+02
-3.45962666587e+03
-4.06667660990e+02
2.37023583450e+02
-3.42463966919e+03
-2.12013651697e+02
3.20626886651e+02
-3.32500513225e+03
-8.19500009019e+01
4.45748072000e+02
-3.17589151010e+03
-9.82301878795e+02
6.57836979237e+02
-2.92313379295e+03
-2.35388105079e+02
5.41264947208e+02
-3.06205893092e+03
-5.69871316028e+02
8.40374504474e+02
-2.70559404147e+03
-7.11529394962e+02
3.50161918889e+02
-3.28980665147e+03
-4.01907468113e+02
3.68697219987e+02
-3.26771713980e+03
-3.01147993968e+02
7.32392613644e+02
-2.83428184780e+03
-8.72831799617e+02
8.02387168171e+02
-2.75086558598e+03
-9.56998297522e+02
4.55590063739e+02
-3.16416228109e+03
-3.83495241035e+02
8.36515227620e+02
-2.71019334853e+03
-5.24957334276e+02
6.99549662937e+02
-2.87342255230e+03
-3.68806365849e+02
6.08303991849e+02
-2.98216490863e+03
-5.60624169490e+02
5.42627281744e+02
-3.06043536384e+03
-7.57039155452e+02
6.08228297855e+02
-2.98225511721e+03
-7.59403827432e+02
4.72412129709e+02
-3.14411452353e+03
-7.22504460330e+02
7.28377464595e+02
-2.83906691610e+03
-2.64377961448e+02
4.33055503539e+02
-3.19101792417e+03
-8.89060199783e+02
3.50161918889e+02
-3.28980665147e+03
-7.33474615242e+02
8.59960767873e+02
-2.68225204170e+03
-1.02657022686e+03
7.66800870444e+02
-2.79327568415e+03
-1.06255581105e+03
5.40549452857e+02
-3.06291162388e+03
-1.90023907337e+02
6.50395874092e+02
-2.93200175674e+03
-5.47512317998e+02
3.06492151437e+02
-3.34185025372e+03
-5.83826678727e+02
4.23842427026e+02
-3.20199764120e+03
-9.03659794049e+02
5.46923384679e+02
-3.05531546774e+03
-4.02488458118e+02
4.86298561892e+02
-3.12756531809e+03
1.39247167980e+02
4.29658966839e+02
-3.00000000000e+03
9.35748874867e+01
5.77249468093e+02
-2.82410848990e+03
-3.64887633081e+01
7.02370653443e+02
-2.67499486775e+03
-2.31142772601e+02
7.85973956644e+02
-2.57536033081e+03
-4.60752832020e+02
8.15331532651e+02
-2.54037333413e+03
-6.90362891439e+02
7.85973956644e+02
-2.57536033081e+03
-8.85016900732e+02
7.02370653443e+02
-2.67499486775e+03
-1.01508055153e+03
5.77249468093e+02
-2.82410848990e+03
-1.06075283202e+03
4.29658966839e+02
-3.00000000000e+03
-1.01508055153e+03
2.82068465585e+02
-3.17589151010e+03
-8.85016900732e+02
1.56947280236e+02
-3.32500513225e+03
-6.90362891439e+02
7.33439770346e+01
-3.42463966919e+03
-4.60752832020e+02
4.39864010275e+01
-3.45962666587e+03
-2.31142772601e+02
7.33439770346e+01
-3.42463966919e+03
-3.64887633081e+01
1.56947280236e+02
-3.32500513225e+03
9.35748874867e+01
2.82068465585e+02
-3.17589151010e+03
-3.85501157466e+02
1.86482312474e+02
-3.28980665147e+03
-5.42147648576e+02
6.95030235725e+02
-2.68374283693e+03
-8.39068547352e+02
3.81288122828e+02
-3.05764612713e+03
-7.08121434506e+01
4.83655900143e+02
-2.93564896075e+03
-7.81473409133e+02
5.67407476355e+02
-2.83583771891e+03
-6.34476559427e+02
2.26776986862e+02
-3.24178532851e+03
-2.34565328910e+02
6.48692719502e+02
-2.73896573837e+03
-1.42041358264e+02
2.85161188911e+02
-3.17220574597e+03
-1.44990189488e+01
3.72601666001e+02
-3.06799824326e+03
-2.65198556211e+02
4.05153668847e+02
-3.02920427692e+03
-2.55159122143e+02
5.40647758235e+02
-2.86772870912e+03
-4.63043301905e+02
4.99903277397e+02
-2.91628609053e+03
-5.29764428503e+02
3.64241917225e+02
-3.07796100389e+03
-6.80842827495e+02
4.59203661243e+02
-2.96479000430e+03
-3.76782071951e+02
3.02472868463e+02
-3.15157448967e+03
-8.24371166880e+01
5.92144412527e+02
-2.80635738636e+03
-7.13535311394e+02
6.72835621205e+02
-2.71019334853e+03
-3.74101443840e+02
7.12031896534e+02
-2.66348104659e+03
-9.07006645091e+02
4.86716267677e+02
-2.93200175674e+03
-8.20248311744e+02
2.73234816746e+02
-3.18641904284e+03
-2.26842404126e+02
1.96767464581e+02
-3.27754928450e+03
-5.42773360088e+02
1.32647419350e+02
-3.35396457876e+03
-6.10120761438e+02
5.73350861291e+02
-2.82875466856e+03
-7.00880134904e+02
3.40949100981e+02
-3.10572030134e+03
-4.13189601135e+02
6.11609458114e+02
-2.78315984835e+03

</DataArray>
</Points>
<Cells>
<DataArray type="Int64" Name="connectivity" format="ascii">
0
1
36
0
15
17
0
17
36
1
2
21
1
21
36
2
3
24
2
21
24
3
4
18
3
18
24
4
5
33
4
18
33
5
6
22
5
22
33
6
7
34
6
22
34
7
8
16
7
16
34
8
9
35
8
16
35
9
10
23
9
23
35
10
11
32
10
23
32
11
12
19
11
19
32
12
13
37
12
19
37
13
14
20
13
20
37
14
15
31
14
20
31
15
17
31
16
22
30
16
22
34
16
28
30
16
28
39
16
35
39
17
26
36
17
26
40
17
31
40
18
24
25
18
25
30
18
30
33
19
29
32
19
29
38
19
37
38
20
31
40
20
37
38
20
38
40
21
24
25
21
25
26
21
26
36
22
30
33
23
29
32
23
29
39
23
35
39
25
26
27
25
27
28
25
28
30
26
27
40
27
28
29
27
29
38
27
38
40
28
29
39
41
42
60
41
56
65
41
60
65
42
43
72
42
60
72
43
44
63
43
63
72
44
45
74
44
63
74
45
46
58
45
58
74
46
47
73
46
58
73
47
48
61
47
61
73
48
49
75
48
61
75
49
50
59
49
59
75
50
51
76
50
59
76
51
52
62
51
62
76
52
53
78
52
62
78
53
54
57
53
57
78
54
55
77
54
57
77
55
56
64
55
64
77
56
64
65
57
62
71
57
62
78
57
71
77
58
73
79
58
74
81
58
79
81
59
70
75
59
70
80
59
76
80
60
65
66
60
66
67
60
67
72
61
70
75
61
70
79
61
73
79
62
69
71
62
69
80
62
76
80
63
67
72
63
67
81
63
74
81
64
65
66
64
66
71
64
71
77
66
67
68
66
68
69
66
69
71
67
68
81
68
69
70
68
70
79
68
79
81
69
70
80

</DataArray>
<DataArray type="Int64" Name="offsets" format="ascii">
3
6
9
12
15
18
21
24
27
30
33
36
39
42
45
48
51
54
57
60
63
66
69
72
75
78
81
84
87
90
93
96
99
102
105
108
111
114
117
120
123
126
129
132
135
138
141
144
147
150
153
156
159
162
165
168
171
174
177
180
183
186
189
192
195
198
201
204
207
210
213
216
219
222
225
228
231
234
237
240
243
246
249
252
255
258
261
264
267
270
273
276
279
282
285
288
291
294
297
300
303
306
309
312
315
318
321
324
327
330
333
336
339
342
345
348
351
354
357
360
363
366
369
372
375
378
381
384

</DataArray>
<DataArray type="Int64" Name="types" format="ascii">
5
5
5
5
5
5
5
5
5
5
5
5
5
5
5
5
5
5
5
5
5
5
5
5
5
5
5
5
5
5
5
5
5
5
5
5
5
5
5
5
5
5
5
5
5
5
5
5
5
5
5
5
5
5
5
5
5
5
5
5
5
5
5
5
5
5
5
5
5
5
5
5
5
5
5
5
5
5
5
5
5
5
5
5
5
5
5
5
5
5
5
5
5
5
5
5
5
5
5
5
5
5
5
5
5
5
5
5
5
5
5
5
5
5
5
5
5
5
5
5
5
5
5
5
5
5
5
5

</DataArray>
</Cells>
<PointData>
<DataArray type="Int64" Name="node_id" format="ascii">
0
1
2
3
4
5
6
7
8
9
10
11
12
13
14
15
16
17
18
19
20
21
22
23
24
25
26
27
28
29
30
31
32
33
34
35
36
37
38
39
40
0
1
2
3
4
5
6
7
8
9
10
11
12
13
14
15
16
17
18
19
20
21
22
23
24
25
26
27
28
29
30
31
32
33
34
35
36
37
38
39
40

</DataArray>
</PointData>
<CellData>
<DataArray type="Float64" Name="aperture" format="ascii">
1.02549895322e-03
1.02859168930e-03
1.03546506574e-03
1.01396049040e-03
1.03416943896e-03
1.02136058325e-03
1.01989146529e-03
1.04407570972e-03
1.03094495627e-03
1.05947266604e-03
1.05083642657e-03
1.04887265453e-03
1.05163885393e-03
1.05415362182e-03
1.05655945923e-03
1.05153668611e-03
1.05017159220e-03
1.04453555991e-03
1.05290142373e-03
1.03518544414e-03
1.04738128900e-03
1.03162210788e-03
1.03939292533e-03
1.03496310466e-03
1.03465279899e-03
1.02286152225e-03
1.03706102045e-03
1.03397901475e-03
1.03669327593e-03
1.03870471845e-03
1.03866014491e-03
1.03372593821e-03
1.06457210961e-03
1.05467429004e-03
1.06777417552e-03
1.06635822331e-03
1.05854797138e-03
1.05184949277e-03
1.06243773536e-03
1.04958631353e-03
1.04005302464e-03
1.05141532345e-03
1.04845000126e-03
1.05170795867e-03
1.05309145885e-03
1.04282103030e-03
1.04487789292e-03
1.04183584248e-03
1.04945037157e-03
1.04012222616e-03
1.05380124035e-03
1.05105688165e-03
1.04905055042e-03
1.05173271790e-03
1.05175306804e-03
1.05010007897e-03
1.06855615317e-03
1.06745777356e-03
1.06648146137e-03
1.06801792805e-03
1.06570961573e-03
1.06157826641e-03
1.06201423540e-03
1.06185195847e-03
1.02697602393e-03
1.02123007176e-03
1.02374343269e-03
1.03292375853e-03
1.03198444943e-03
1.04060281643e-03
1.04427296166e-03
1.03441656199e-03
1.04005120890e-03
1.02882941560e-03
1.03481210774e-03
1.01383940170e-03
1.02154404574e-03
1.00855521581e-03
1.01161647788e-03
1.00748539140e-03
1.01055379220e-03
1.00728792986e-03
1.00952618912e-03
1.00717413726e-03
1.00891432477e-03
1.00913754551e-03
1.01005877370e-03
1.01192553787e-03
1.01207540346e-03
1.01700361545e-03
1.01522695252e-03
1.01706829791e-03
1.01818145765e-03
1.01933760599e-03
1.02006249980e-03
1.02093551940e-03
1.01614330190e-03
1.01490585192e-03
1.01778224920e-03
1.01558581535e-03
1.02590338327e-03
1.01820002425e-03
1.01261784505e-03
1.01339670332e-03
1.01242721274e-03
1.02136632270e-03
1.02075531723e-03
1.02383602400e-03
1.01326003785e-03
1.01512976352e-03
1.01604921735e-03
1.01683523943e-03
1.01548381453e-03
1.01382294514e-03
1.02970522359e-03
1.02756154515e-03
1.03789091891e-03
1.02155523480e-03
1.01998296726e-03
1.01923852795e-03
1.01963013910e-03
1.01901217405e-03
1.01957819698e-03
1.02263262089e-03
1.01654578042e-03
1.01634096923e-03
1.01786827703e-03
1.01535109589e-03

</DataArray>
<DataArray type="Int64" Name="cell_id" format="ascii">
0
1
2
3
4
5
6
7
8
9
10
11
12
13
14
15
16
17
18
19
20
21
22
23
24
25
26
27
28
29
30
31
32
33
34
35
36
37
38
39
40
41
42
43
44
45
46
47
48
49
50
51
52
53
54
55
56
57
58
59
60
61
62
63
0
1
2
3
4
5
6
7
8
9
10
11
12
13
14
15
16
17
18
19
20
21
22
23
24
25
26
27
28
29
30
31
32
33
34
35
36
37
38
39
40
41
42
43
44
45
46
47
48
49
50
51
52
53
54
55
56
57
58
59
60
61
62
63

</DataArray>
<DataArray type="Float64" Name="contact_traction" NumberOfComponents="3" format="ascii">
0.00000000000e+00
0.00000000000e+00
0.00000000000e+00
0.00000000000e+00
0.00000000000e+00
0.00000000000e+00
0.00000000000e+00
0.00000000000e+00
0.00000000000e+00
0.00000000000e+00
0.00000000000e+00
0.00000000000e+00
0.00000000000e+00
0.00000000000e+00
0.00000000000e+00
0.00000000000e+00
0.00000000000e+00
0.00000000000e+00
0.00000000000e+00
0.00000000000e+00
0.00000000000e+00
0.00000000000e+00
0.00000000000e+00
0.00000000000e+00
0.00000000000e+00
0.00000000000e+00
0.00000000000e+00
0.00000000000e+00
0.00000000000e+00
0.00000000000e+00
0.00000000000e+00
0.00000000000e+00
0.00000000000e+00
0.00000000000e+00
0.00000000000e+00
0.00000000000e+00
0.00000000000e+00
0.00000000000e+00
0.00000000000e+00
0.00000000000e+00
0.00000000000e+00
0.00000000000e+00
0.00000000000e+00
0.00000000000e+00
0.00000000000e+00
0.00000000000e+00
0.00000000000e+00
0.00000000000e+00
0.00000000000e+00
0.00000000000e+00
0.00000000000e+00
0.00000000000e+00
0.00000000000e+00
0.00000000000e+00
0.00000000000e+00
0.00000000000e+00
0.00000000000e+00
0.00000000000e+00
0.00000000000e+00
0.00000000000e+00
0.00000000000e+00
0.00000000000e+00
0.00000000000e+00
0.00000000000e+00
0.00000000000e+00
0.00000000000e+00
0.00000000000e+00
0.00000000000e+00
0.00000000000e+00
0.00000000000e+00
0.00000000000e+00
0.00000000000e+00
0.00000000000e+00
0.00000000000e+00
0.00000000000e+00
0.00000000000e+00
0.00000000000e+00
0.00000000000e+00
0.00000000000e+00
0.00000000000e+00
0.00000000000e+00
0.00000000000e+00
0.00000000000e+00
0.00000000000e+00
0.00000000000e+00
0.00000000000e+00
0.00000000000e+00
0.00000000000e+00
0.00000000000e+00
0.00000000000e+00
0.00000000000e+00
0.00000000000e+00
0.00000000000e+00
0.00000000000e+00
0.00000000000e+00
0.00000000000e+00
0.00000000000e+00
0.00000000000e+00
0.00000000000e+00
0.00000000000e+00
0.00000000000e+00
0.00000000000e+00
0.00000000000e+00
0.00000000000e+00
0.00000000000e+00
0.00000000000e+00
0.00000000000e+00
0.00000000000e+00
0.00000000000e+00
0.00000000000e+00
0.00000000000e+00
0.00000000000e+00
0.00000000000e+00
0.00000000000e+00
0.00000000000e+00
0.00000000000e+00
0.00000000000e+00
0.00000000000e+00
0.00000000000e+00
0.00000000000e+00
0.00000000000e+00
0.00000000000e+00
0.00000000000e+00
0.00000000000e+00
0.00000000000e+00
0.00000000000e+00
0.00000000000e+00
0.00000000000e+00
0.00000000000e+00
0.00000000000e+00
0.00000000000e+00
0.00000000000e+00
0.00000000000e+00
0.00000000000e+00
0.00000000000e+00
0.00000000000e+00
0.00000000000e+00
0.00000000000e+00
0.00000000000e+00
0.00000000000e+00
0.00000000000e+00
0.00000000000e+00
0.00000000000e+00
0.00000000000e+00
0.00000000000e+00
0.00000000000e+00
0.00000000000e+00
0.00000000000e+00
0.00000000000e+00
0.00000000000e+00
0.00000000000e+00
0.00000000000e+00
0.00000000000e+00
0.00000000000e+00
0.00000000000e+00
0.00000000000e+00
0.00000000000e+00
0.00000000000e+00
0.00000000000e+00
0.00000000000e+00
0.00000000000e+00
0.00000000000e+00
0.00000000000e+00
0.00000000000e+00
0.00000000000e+00
0.00000000000e+00
0.00000000000e+00
0.00000000000e+00
0.00000000000e+00
0.00000000000e+00
0.00000000000e+00
0.00000000000e+00
0.00000000000e+00
0.00000000000e+00
0.00000000000e+00
0.00000000000e+00
0.00000000000e+00
0.00000000000e+00
0.00000000000e+00
0.00000000000e+00
0.00000000000e+00
0.00000000000e+00
0.00000000000e+00
0.00000000000e+00
0.00000000000e+00
0.00000000000e+00
0.00000000000e+00
0.00000000000e+00
0.00000000000e+00
0.00000000000e+00
0.00000000000e+00
0.00000000000e+00
0.00000000000e+00
0.00000000000e+00
0.00000000000e+00
0.00000000000e+00
0.00000000000e+00
0.00000000000e+00
0.00000000000e+00
0.00000000000e+00
0.00000000000e+00
0.00000000000e+00
0.00000000000e+00
0.00000000000e+00
0.00000000000e+00
0.00000000000e+00
0.00000000000e+00
0.00000000000e+00
0.00000000000e+00
0.00000000000e+00
0.00000000000e+00
0.00000000000e+00
0.00000000000e+00
0.00000000000e+00
0.00000000000e+00
0.00000000000e+00
0.00000000000e+00
0.00000000000e+00
0.00000000000e+00
0.00000000000e+00
0.00000000000e+00
0.00000000000e+00
0.00000000000e+00
0.00000000000e+00
0.00000000000e+00
0.00000000000e+00
0.00000000000e+00
0.00000000000e+00
0.00000000000e+00
0.00000000000e+00
0.00000000000e+00
0.00000000000e+00
0.00000000000e+00
0.00000000000e+00
0.00000000000e+00
0.00000000000e+00
0.00000000000e+00
-1.71120115690e+06
-2.09030713587e+06
-3.37675725588e+06
0.00000000000e+00
0.00000000000e+00
0.00000000000e+00
-2.35044745540e+06
-6.27109292852e+06
-8.37138072530e+06
-8.69048775126e+05
-1.08213989040e+06
-1.73487774963e+06
-1.61166183503e+06
-8.68622165231e+06
-1.10430903498e+07
-1.88927876963e+06
-8.44664743030e+06
-1.08191978591e+07
-3.95711884121e+05
-1.36942031828e+07
-1.71248991196e+07
-5.21682286717e+05
-8.97120952897e+06
-1.12329560349e+07
1.05763459006e+06
-7.38827716281e+06
-9.32949207827e+06
1.44285019246e+06
-1.38855467026e+07
-1.74503860948e+07
0.00000000000e+00
0.00000000000e+00
0.00000000000e+00
1.69957571904e+06
-8.23874212170e+06
-1.05152738145e+07
5.03277077080e+05
-2.52033292616e+06
-3.21261329445e+06
1.40464019533e+06
-6.05681363678e+06
-7.77194529110e+06
1.88947604718e+05
-1.03508246207e+06
-1.31523340408e+06
6.43185816128e+05
-2.78549214994e+06
-3.57348186984e+06
3.69316654362e+05
-2.22876249292e+06
-2.82394256787e+06
1.55127419643e+06
-1.14322474335e+07
-1.44212697199e+07
1.59977143626e+06
-1.17877942284e+07
-1.48698184999e+07
2.06747272638e+06
-1.14662472991e+07
-1.45639361201e+07
0.00000000000e+00
0.00000000000e+00
0.00000000000e+00
0.00000000000e+00
0.00000000000e+00
0.00000000000e+00
0.00000000000e+00
0.00000000000e+00
0.00000000000e+00
-1.13807049146e+06
-3.72931140338e+06
-4.87387294454e+06
-8.99103817226e+05
-5.60529540062e+06
-7.79057112510e+06
-9.65971828427e+05
-6.46712126365e+06
-8.17358158682e+06
9.33712184310e+05
-3.27262392705e+06
-4.25402122465e+06
7.90772124064e+05
-2.60498248893e+06
-3.40295237620e+06
0.00000000000e+00
0.00000000000e+00
0.00000000000e+00
0.00000000000e+00
0.00000000000e+00
0.00000000000e+00
-1.64942504951e+05
-4.41469488910e+05
-5.89095359930e+05
0.00000000000e+00
0.00000000000e+00
0.00000000000e+00
6.31230169912e+05
-5.03085397277e+06
-6.33787513964e+06
9.01200492318e+04
-4.47508907810e+06
-5.59499551500e+06
-3.75139789001e+05
-4.55370903822e+06
-5.71141891659e+06
0.00000000000e+00
0.00000000000e+00
0.00000000000e+00
0.00000000000e+00
0.00000000000e+00
0.00000000000e+00
0.00000000000e+00
0.00000000000e+00
0.00000000000e+00
1.10068573739e+06
-5.49130907258e+06
-7.00066787250e+06
1.69330197803e+06
-6.09308128200e+06
-7.90499358572e+06
2.26965299934e+06
-1.03504480499e+07
-1.32454650005e+07
9.88121129361e+05
-3.31430126154e+06
-4.32308053839e+06
1.09744354970e+06
-5.47369688807e+06
-6.97828551284e+06
9.29137151678e+05
-3.29019025868e+06
-4.27358305921e+06
0.00000000000e+00
0.00000000000e+00
0.00000000000e+00
-1.82776916914e+05
-6.36008268931e+06
-7.95338560144e+06
-1.41454960363e+05
-9.98807421478e+05
-1.26096798818e+06
0.00000000000e+00
0.00000000000e+00
0.00000000000e+00
-4.02112100416e+05
-5.55533757669e+06
-7.80932799395e+06

</DataArray>
<DataArray type="Int64" Name="grid_dim" format="ascii">
2
2
2
2
2
2
2
2
2
2
2
2
2
2
2
2
2
2
2
2
2
2
2
2
2
2
2
2
2
2
2
2
2
2
2
2
2
2
2
2
2
2
2
2
2
2
2
2
2
2
2
2
2
2
2
2
2
2
2
2
2
2
2
2
2
2
2
2
2
2
2
2
2
2
2
2
2
2
2
2
2
2
2
2
2
2
2
2
2
2
2
2
2
2
2
2
2
2
2
2
2
2
2
2
2
2
2
2
2
2
2
2
2
2
2
2
2
2
2
2
2
2
2
2
2
2
2
2

</DataArray>
<DataArray type="Int64" Name="is_mortar" format="ascii">
0
0
0
0
0
0
0
0
0
0
0
0
0
0
0
0
0
0
0
0
0
0
0
0
0
0
0
0
0
0
0
0
0
0
0
0
0
0
0
0
0
0
0
0
0
0
0
0
0
0
0
0
0
0
0
0
0
0
0
0
0
0
0
0
0
0
0
0
0
0
0
0
0
0
0
0
0
0
0
0
0
0
0
0
0
0
0
0
0
0
0
0
0
0
0
0
0
0
0
0
0
0
0
0
0
0
0
0
0
0
0
0
0
0
0
0
0
0
0
0
0
0
0
0
0
0
0
0

</DataArray>
<DataArray type="Int64" Name="mortar_side" format="ascii">
0
0
0
0
0
0
0
0
0
0
0
0
0
0
0
0
0
0
0
0
0
0
0
0
0
0
0
0
0
0
0
0
0
0
0
0
0
0
0
0
0
0
0
0
0
0
0
0
0
0
0
0
0
0
0
0
0
0
0
0
0
0
0
0
0
0
0
0
0
0
0
0
0
0
0
0
0
0
0
0
0
0
0
0
0
0
0
0
0
0
0
0
0
0
0
0
0
0
0
0
0
0
0
0
0
0
0
0
0
0
0
0
0
0
0
0
0
0
0
0
0
0
0
0
0
0
0
0

</DataArray>
<DataArray type="Float64" Name="pressure" format="ascii">
5.06341796918e+07
5.43500711660e+07
5.22001985708e+07
4.80379899574e+07
4.94554536040e+07
4.60190723031e+07
4.72497569203e+07
4.50610682806e+07
4.59026630648e+07
4.46711068344e+07
4.52883555385e+07
4.51700590983e+07
4.53248560606e+07
4.60420303927e+07
4.58767157154e+07
4.76113678445e+07
4.69358027345e+07
4.93667601225e+07
4.85284041011e+07
5.10693425426e+07
5.01000519632e+07
5.27994399143e+07
5.17402753599e+07
5.40212694475e+07
5.30622373270e+07
5.54079160128e+07
5.43166208192e+07
5.69244188020e+07
5.56092161200e+07
6.16247108662e+07
5.76756621565e+07
5.64736770939e+07
4.71710536425e+07
4.68148376283e+07
4.81825482915e+07
4.88766654185e+07
4.89373662656e+07
5.16784543931e+07
5.26779389341e+07
5.46235040801e+07
4.71117812480e+07
4.73914574750e+07
4.64199394039e+07
5.21844443992e+07
5.23704256610e+07
5.35676097604e+07
5.53464386715e+07
5.43267049748e+07
5.39786973839e+07
4.79583531284e+07
4.93802318400e+07
5.01229388796e+07
4.63961182167e+07
5.13840871037e+07
5.04708642511e+07
4.98663443261e+07
5.02258192422e+07
4.96224913036e+07
4.84334246398e+07
5.18644995789e+07
5.04776142810e+07
5.17380940177e+07
5.24845962675e+07
4.99924230765e+07
4.37674845677e+07
4.53110451052e+07
4.45812691253e+07
4.23418662271e+07
4.32004050218e+07
4.14062132610e+07
4.21417684943e+07
4.08073765257e+07
4.14369147094e+07
4.09447780528e+07
4.12130144928e+07
4.15049482523e+07
4.15273889082e+07
4.27477351665e+07
4.23740462832e+07
4.41193003195e+07
4.35939661603e+07
4.56584181996e+07
4.48826799020e+07
4.70804876255e+07
4.62529199248e+07
4.80022756600e+07
4.72875573291e+07
4.86911809151e+07
4.80662137845e+07
4.84117202833e+07
4.82529371561e+07
4.78851066291e+07
4.78399245110e+07
4.67277833059e+07
4.71064437236e+07
4.59199697388e+07
4.70505182760e+07
4.76509834333e+07
4.70963024602e+07
4.23766680411e+07
4.20272423578e+07
4.26077313841e+07
4.47870728271e+07
4.53508732431e+07
4.60449310772e+07
4.48253481224e+07
4.42529832047e+07
4.34594788159e+07
4.40683473252e+07
4.37357489370e+07
4.28893220766e+07
4.64242793902e+07
4.62899654359e+07
4.66213480797e+07
4.28475715277e+07
4.28434925669e+07
4.21724952424e+07
4.56017814697e+07
4.59703432636e+07
4.67032806058e+07
4.42762832998e+07
4.50020279372e+07
4.57380746697e+07
4.34781132409e+07
4.48143709413e+07
4.39999195109e+07
4.33830458779e+07
4.54219859824e+07

</DataArray>
<DataArray type="Float64" Name="specific_volume" format="ascii">
1.02549895322e-03
1.02859168930e-03
1.03546506574e-03
1.01396049040e-03
1.03416943896e-03
1.02136058325e-03
1.01989146529e-03
1.04407570972e-03
1.03094495627e-03
1.05947266604e-03
1.05083642657e-03
1.04887265453e-03
1.05163885393e-03
1.05415362182e-03
1.05655945923e-03
1.05153668611e-03
1.05017159220e-03
1.04453555991e-03
1.05290142373e-03
1.03518544414e-03
1.04738128900e-03
1.03162210788e-03
1.03939292533e-03
1.03496310466e-03
1.03465279899e-03
1.02286152225e-03
1.03706102045e-03
1.03397901475e-03
1.03669327593e-03
1.03870471845e-03
1.03866014491e-03
1.03372593821e-03
1.06457210961e-03
1.05467429004e-03
1.06777417552e-03
1.06635822331e-03
1.05854797138e-03
1.05184949277e-03
1.06243773536e-03
1.04958631353e-03
1.04005302464e-03
1.05141532345e-03
1.04845000126e-03
1.05170795867e-03
1.05309145885e-03
1.04282103030e-03
1.04487789292e-03
1.04183584248e-03
1.04945037157e-03
1.04012222616e-03
1.05380124035e-03
1.05105688165e-03
1.04905055042e-03
1.05173271790e-03
1.05175306804e-03
1.05010007897e-03
1.06855615317e-03
1.06745777356e-03
1.06648146137e-03
1.06801792805e-03
1.06570961573e-03
1.06157826641e-03
1.06201423540e-03
1.06185195847e-03
1.02697602393e-03
1.02123007176e-03
1.02374343269e-03
1.03292375853e-03
1.03198444943e-03
1.04060281643e-03
1.04427296166e-03
1.03441656199e-03
1.04005120890e-03
1.02882941560e-03
1.03481210774e-03
1.01383940170e-03
1.02154404574e-03
1.00855521581e-03
1.01161647788e-03
1.00748539140e-03
1.01055379220e-03
1.00728792986e-03
1.00952618912e-03
1.00717413726e-03
1.00891432477e-03
1.00913754551e-03
1.01005877370e-03
1.01192553787e-03
1.01207540346e-03
1.01700361545e-03
1.01522695252e-03
1.01706829791e-03
1.01818145765e-03
1.01933760599e-03
1.02006249980e-03
1.02093551940e-03
1.01614330190e-03
1.01490585192e-03
1.01778224920e-03
1.01558581535e-03
1.02590338327e-03
1.01820002425e-03
1.01261784505e-03
1.01339670332e-03
1.01242721274e-03
1.02136632270e-03
1.02075531723e-03
1.02383602400e-03
1.01326003785e-03
1.01512976352e-03
1.01604921735e-03
1.01683523943e-03
1.01548381453e-03
1.01382294514e-03
1.02970522359e-03
1.02756154515e-03
1.03789091891e-03
1.02155523480e-03
1.01998296726e-03
1.01923852795e-03
1.01963013910e-03
1.01901217405e-03
1.01957819698e-03
1.02263262089e-03
1.01654578042e-03
1.01634096923e-03
1.01786827703e-03
1.01535109589e-03

</DataArray>
<DataArray type="Int64" Name="states" format="ascii">
2
2
2
2
2
2
2
2
2
2
2
2
2
2
2
2
2
2
2
2
2
2
2
2
2
2
2
2
2
2
2
2
2
2
2
2
2
2
2
2
2
2
2
2
2
2
2
2
2
2
2
2
2
2
2
2
2
2
2
2
2
2
2
2
2
2
2
2
2
2
2
2
2
2
2
2
2
2
2
1
2
1
1
1
1
1
1
1
1
2
1
1
1
1
1
1
1
1
1
2
2
2
1
0
1
1
1
2
2
1
2
1
1
1
2
2
2
1
1
1
1
1
1
2
1
1
2
0

</DataArray>
<DataArray type="Int64" Name="subdomain_id" format="ascii">
5
5
5
5
5
5
5
5
5
5
5
5
5
5
5
5
5
5
5
5
5
5
5
5
5
5
5
5
5
5
5
5
5
5
5
5
5
5
5
5
5
5
5
5
5
5
5
5
5
5
5
5
5
5
5
5
5
5
5
5
5
5
5
5
6
6
6
6
6
6
6
6
6
6
6
6
6
6
6
6
6
6
6
6
6
6
6
6
6
6
6
6
6
6
6
6
6
6
6
6
6
6
6
6
6
6
6
6
6
6
6
6
6
6
6
6
6
6
6
6
6
6
6
6
6
6
6
6

</DataArray>
</CellData>
</Piece>
</UnstructuredGrid>
</VTKFile>
