<?xml version="1.0"?>
<VTKFile type="UnstructuredGrid" version="0.1" byte_order="LittleEndian">
<!--This file was created by meshio v5.3.5-->
<UnstructuredGrid>
<Piece NumberOfPoints="82" NumberOfCells="128">
<Points>
<DataArray type="Float64" Name="Points" NumberOfComponents="3" format="ascii">
-3.62777204087e+01
5.93338573254e+02
-3.00000000000e+03
-8.19500009019e+01
7.40929074508e+02
-2.82410848990e+03
-2.12013651697e+02
8.66050259858e+02
-2.67499486775e+03
-4.06667660990e+02
9.49653563059e+02
-2.57536033081e+03
-6.36277720409e+02
9.79011139066e+02
-2.54037333413e+03
-8.65887779828e+02
9.49653563059e+02
-2.57536033081e+03
-1.06054178912e+03
8.66050259858e+02
-2.67499486775e+03
-1.19060543992e+03
7.40929074508e+02
-2.82410848990e+03
-1.23627772041e+03
5.93338573254e+02
-3.00000000000e+03
-1.19060543992e+03
4.45748072000e+02
-3.17589151010e+03
-1.06054178912e+03
3.20626886651e+02
-3.32500513225e+03
-8.65887779828e+02
2.37023583450e+02
-3.42463966919e+03
-6.36277720409e+02
2.07666007442e+02
-3.45962666587e+03
-4.06667660990e+02
2.37023583450e+02
-3.42463966919e+03
-2.12013651697e+02
3.20626886651e+02
-3.32500513225e+03
-8.19500009019e+01
4.45748072000e+02
-3.17589151010e+03
-9.82301878795e+02
6.57836979237e+02
-2.92313379295e+03
-2.35388105079e+02
5.41264947208e+02
-3.06205893092e+03
-5.69871316028e+02
8.40374504474e+02
-2.70559404147e+03
-7.11529394962e+02
3.50161918889e+02
-3.28980665147e+03
-4.01907468113e+02
3.68697219987e+02
-3.26771713980e+03
-3.01147993968e+02
7.32392613644e+02
-2.83428184780e+03
-8.72831799617e+02
8.02387168171e+02
-2.75086558598e+03
-9.56998297522e+02
4.55590063739e+02
-3.16416228109e+03
-3.83495241035e+02
8.36515227620e+02
-2.71019334853e+03
-5.24957334276e+02
6.99549662937e+02
-2.87342255230e+03
-3.68806365849e+02
6.08303991849e+02
-2.98216490863e+03
-5.60624169490e+02
5.42627281744e+02
-3.06043536384e+03
-7.57039155452e+02
6.08228297855e+02
-2.98225511721e+03
-7.59403827432e+02
4.72412129709e+02
-3.14411452353e+03
-7.22504460330e+02
7.28377464595e+02
-2.83906691610e+03
-2.64377961448e+02
4.33055503539e+02
-3.19101792417e+03
-8.89060199783e+02
3.50161918889e+02
-3.28980665147e+03
-7.33474615242e+02
8.59960767873e+02
-2.68225204170e+03
-1.02657022686e+03
7.66800870444e+02
-2.79327568415e+03
-1.06255581105e+03
5.40549452857e+02
-3.06291162388e+03
-1.90023907337e+02
6.50395874092e+02
-2.93200175674e+03
-5.47512317998e+02
3.06492151437e+02
-3.34185025372e+03
-5.83826678727e+02
4.23842427026e+02
-3.20199764120e+03
-9.03659794049e+02
5.46923384679e+02
-3.05531546774e+03
-4.02488458118e+02
4.86298561892e+02
-3.12756531809e+03
1.39247167980e+02
4.29658966839e+02
-3.00000000000e+03
9.35748874867e+01
5.77249468093e+02
-2.82410848990e+03
-3.64887633081e+01
7.02370653443e+02
-2.67499486775e+03
-2.31142772601e+02
7.85973956644e+02
-2.57536033081e+03
-4.60752832020e+02
8.15331532651e+02
-2.54037333413e+03
-6.90362891439e+02
7.85973956644e+02
-2.57536033081e+03
-8.85016900732e+02
7.02370653443e+02
-2.67499486775e+03
-1.01508055153e+03
5.77249468093e+02
-2.82410848990e+03
-1.06075283202e+03
4.29658966839e+02
-3.00000000000e+03
-1.01508055153e+03
2.82068465585e+02
-3.17589151010e+03
-8.85016900732e+02
1.56947280236e+02
-3.32500513225e+03
-6.90362891439e+02
7.33439770346e+01
-3.42463966919e+03
-4.60752832020e+02
4.39864010275e+01
-3.45962666587e+03
-2.31142772601e+02
7.33439770346e+01
-3.42463966919e+03
-3.64887633081e+01
1.56947280236e+02
-3.32500513225e+03
9.35748874867e+01
2.82068465585e+02
-3.17589151010e+03
-3.85501157466e+02
1.86482312474e+02
-3.28980665147e+03
-5.42147648576e+02
6.95030235725e+02
-2.68374283693e+03
-8.39068547352e+02
3.81288122828e+02
-3.05764612713e+03
-7.08121434506e+01
4.83655900143e+02
-2.93564896075e+03
-7.81473409133e+02
5.67407476355e+02
-2.83583771891e+03
-6.34476559427e+02
2.26776986862e+02
-3.24178532851e+03
-2.34565328910e+02
6.48692719502e+02
-2.73896573837e+03
-1.42041358264e+02
2.85161188911e+02
-3.17220574597e+03
-1.44990189488e+01
3.72601666001e+02
-3.06799824326e+03
-2.65198556211e+02
4.05153668847e+02
-3.02920427692e+03
-2.55159122143e+02
5.40647758235e+02
-2.86772870912e+03
-4.63043301905e+02
4.99903277397e+02
-2.91628609053e+03
-5.29764428503e+02
3.64241917225e+02
-3.07796100389e+03
-6.80842827495e+02
4.59203661243e+02
-2.96479000430e+03
-3.76782071951e+02
3.02472868463e+02
-3.15157448967e+03
-8.24371166880e+01
5.92144412527e+02
-2.80635738636e+03
-7.13535311394e+02
6.72835621205e+02
-2.71019334853e+03
-3.74101443840e+02
7.12031896534e+02
-2.66348104659e+03
-9.07006645091e+02
4.86716267677e+02
-2.93200175674e+03
-8.20248311744e+02
2.73234816746e+02
-3.18641904284e+03
-2.26842404126e+02
1.96767464581e+02
-3.27754928450e+03
-5.42773360088e+02
1.32647419350e+02
-3.35396457876e+03
-6.10120761438e+02
5.73350861291e+02
-2.82875466856e+03
-7.00880134904e+02
3.40949100981e+02
-3.10572030134e+03
-4.13189601135e+02
6.11609458114e+02
-2.78315984835e+03

</DataArray>
</Points>
<Cells>
<DataArray type="Int64" Name="connectivity" format="ascii">
0
1
36
0
15
17
0
17
36
1
2
21
1
21
36
2
3
24
2
21
24
3
4
18
3
18
24
4
5
33
4
18
33
5
6
22
5
22
33
6
7
34
6
22
34
7
8
16
7
16
34
8
9
35
8
16
35
9
10
23
9
23
35
10
11
32
10
23
32
11
12
19
11
19
32
12
13
37
12
19
37
13
14
20
13
20
37
14
15
31
14
20
31
15
17
31
16
22
30
16
22
34
16
28
30
16
28
39
16
35
39
17
26
36
17
26
40
17
31
40
18
24
25
18
25
30
18
30
33
19
29
32
19
29
38
19
37
38
20
31
40
20
37
38
20
38
40
21
24
25
21
25
26
21
26
36
22
30
33
23
29
32
23
29
39
23
35
39
25
26
27
25
27
28
25
28
30
26
27
40
27
28
29
27
29
38
27
38
40
28
29
39
41
42
60
41
56
65
41
60
65
42
43
72
42
60
72
43
44
63
43
63
72
44
45
74
44
63
74
45
46
58
45
58
74
46
47
73
46
58
73
47
48
61
47
61
73
48
49
75
48
61
75
49
50
59
49
59
75
50
51
76
50
59
76
51
52
62
51
62
76
52
53
78
52
62
78
53
54
57
53
57
78
54
55
77
54
57
77
55
56
64
55
64
77
56
64
65
57
62
71
57
62
78
57
71
77
58
73
79
58
74
81
58
79
81
59
70
75
59
70
80
59
76
80
60
65
66
60
66
67
60
67
72
61
70
75
61
70
79
61
73
79
62
69
71
62
69
80
62
76
80
63
67
72
63
67
81
63
74
81
64
65
66
64
66
71
64
71
77
66
67
68
66
68
69
66
69
71
67
68
81
68
69
70
68
70
79
68
79
81
69
70
80

</DataArray>
<DataArray type="Int64" Name="offsets" format="ascii">
3
6
9
12
15
18
21
24
27
30
33
36
39
42
45
48
51
54
57
60
63
66
69
72
75
78
81
84
87
90
93
96
99
102
105
108
111
114
117
120
123
126
129
132
135
138
141
144
147
150
153
156
159
162
165
168
171
174
177
180
183
186
189
192
195
198
201
204
207
210
213
216
219
222
225
228
231
234
237
240
243
246
249
252
255
258
261
264
267
270
273
276
279
282
285
288
291
294
297
300
303
306
309
312
315
318
321
324
327
330
333
336
339
342
345
348
351
354
357
360
363
366
369
372
375
378
381
384

</DataArray>
<DataArray type="Int64" Name="types" format="ascii">
5
5
5
5
5
5
5
5
5
5
5
5
5
5
5
5
5
5
5
5
5
5
5
5
5
5
5
5
5
5
5
5
5
5
5
5
5
5
5
5
5
5
5
5
5
5
5
5
5
5
5
5
5
5
5
5
5
5
5
5
5
5
5
5
5
5
5
5
5
5
5
5
5
5
5
5
5
5
5
5
5
5
5
5
5
5
5
5
5
5
5
5
5
5
5
5
5
5
5
5
5
5
5
5
5
5
5
5
5
5
5
5
5
5
5
5
5
5
5
5
5
5
5
5
5
5
5
5

</DataArray>
</Cells>
<PointData>
<DataArray type="Int64" Name="node_id" format="ascii">
0
1
2
3
4
5
6
7
8
9
10
11
12
13
14
15
16
17
18
19
20
21
22
23
24
25
26
27
28
29
30
31
32
33
34
35
36
37
38
39
40
0
1
2
3
4
5
6
7
8
9
10
11
12
13
14
15
16
17
18
19
20
21
22
23
24
25
26
27
28
29
30
31
32
33
34
35
36
37
38
39
40

</DataArray>
</PointData>
<CellData>
<DataArray type="Float64" Name="aperture" format="ascii">
1.00794015462e-03
1.00814488364e-03
1.00987326406e-03
1.00819270006e-03
1.01045211901e-03
1.00889052373e-03
1.01029358576e-03
1.01203230117e-03
1.01236699957e-03
1.01623118246e-03
1.01484216582e-03
1.01452581162e-03
1.01656580469e-03
1.01614545950e-03
1.01737027507e-03
1.01649426755e-03
1.01729245012e-03
1.01569336782e-03
1.01828877717e-03
1.01452624229e-03
1.01731582531e-03
1.01332829683e-03
1.01635100566e-03
1.01275336578e-03
1.01587519452e-03
1.00983112164e-03
1.01382031385e-03
1.00983450367e-03
1.01220301590e-03
1.00902580059e-03
1.01124944505e-03
1.01003743232e-03
1.01988161864e-03
1.01926835306e-03
1.02028284581e-03
1.02041671563e-03
1.01980308841e-03
1.01344868609e-03
1.01530324608e-03
1.01382710235e-03
1.01524524208e-03
1.01717782134e-03
1.01677618853e-03
1.01908098108e-03
1.01843586592e-03
1.01618657521e-03
1.01375706616e-03
1.01483591131e-03
1.01532443112e-03
1.01451069772e-03
1.01550316993e-03
1.01376944120e-03
1.01790155850e-03
1.01928056304e-03
1.01961560388e-03
1.01914626733e-03
1.01740681619e-03
1.01890957100e-03
1.01913629625e-03
1.01673870078e-03
1.01955818885e-03
1.01847048952e-03
1.01713362576e-03
1.02021473560e-03
1.01531023417e-03
1.01516386965e-03
1.01709874945e-03
1.01399332184e-03
1.01650228776e-03
1.01278000563e-03
1.01658547178e-03
1.01047108771e-03
1.01389175846e-03
1.01051314623e-03
1.01306974923e-03
1.00791296853e-03
1.01110942677e-03
1.00783162648e-03
1.00967476092e-03
1.00721918843e-03
1.00972827256e-03
1.00717152090e-03
1.00928634388e-03
1.00710770725e-03
1.00889299892e-03
1.00893139285e-03
1.01005058228e-03
1.01070223382e-03
1.01152328306e-03
1.01387478297e-03
1.01384378344e-03
1.01442137095e-03
1.01601835035e-03
1.01603509823e-03
1.01715775509e-03
1.01746555131e-03
1.01565683046e-03
1.01423598891e-03
1.01671350910e-03
1.01359978598e-03
1.01512396221e-03
1.01508065431e-03
1.01250817917e-03
1.01339670332e-03
1.01241184942e-03
1.01886182548e-03
1.01877014280e-03
1.01809852410e-03
1.01292742255e-03
1.01474599618e-03
1.01332958882e-03
1.01660212023e-03
1.01540858302e-03
1.01368146003e-03
1.01772426529e-03
1.01762400915e-03
1.01658112343e-03
1.01916175116e-03
1.01865668752e-03
1.01778019745e-03
1.01860249723e-03
1.01861752842e-03
1.01894659901e-03
1.01799849673e-03
1.01651081259e-03
1.01603881098e-03
1.01655428977e-03
1.01535109589e-03

</DataArray>
<DataArray type="Int64" Name="cell_id" format="ascii">
0
1
2
3
4
5
6
7
8
9
10
11
12
13
14
15
16
17
18
19
20
21
22
23
24
25
26
27
28
29
30
31
32
33
34
35
36
37
38
39
40
41
42
43
44
45
46
47
48
49
50
51
52
53
54
55
56
57
58
59
60
61
62
63
0
1
2
3
4
5
6
7
8
9
10
11
12
13
14
15
16
17
18
19
20
21
22
23
24
25
26
27
28
29
30
31
32
33
34
35
36
37
38
39
40
41
42
43
44
45
46
47
48
49
50
51
52
53
54
55
56
57
58
59
60
61
62
63

</DataArray>
<DataArray type="Float64" Name="contact_traction" NumberOfComponents="3" format="ascii">
-3.97155214834e+04
-6.61996203933e+06
-8.27510146509e+06
-5.69591502091e+05
-9.94704851799e+06
-1.24541790613e+07
-2.87513223248e+05
-8.62166975666e+06
-1.07830779788e+07
1.79310787831e+04
-1.03259168296e+07
-1.29074154980e+07
1.80409225792e+05
-4.71636664179e+06
-5.89976982980e+06
2.95993600418e+05
-9.26300644161e+06
-1.15846679757e+07
2.77000137039e+05
-9.84331159598e+06
-1.23090104352e+07
1.37149034452e+05
-3.66859187954e+06
-4.58894327369e+06
4.79415692130e+05
-9.29414869475e+06
-1.16331315220e+07
0.00000000000e+00
0.00000000000e+00
0.00000000000e+00
1.87724145537e+05
-4.52749980645e+06
-5.66423743382e+06
2.37683529537e+04
-4.48990436861e+06
-5.61245909978e+06
1.13523894831e+05
-6.23832492678e+06
-7.79919723100e+06
0.00000000000e+00
0.00000000000e+00
0.00000000000e+00
-6.08349633021e+04
-2.48096014814e+06
-3.10213236879e+06
2.67540635359e+03
-4.10818464778e+06
-5.13523189867e+06
1.24564238622e+05
-6.73141241970e+06
-8.41570605824e+06
-1.72056558752e+05
-5.33162810908e+06
-6.66800449827e+06
-1.34962960705e+05
-5.73093683275e+06
-7.16565724281e+06
-3.52466197422e+05
-7.93082222057e+06
-9.92331326305e+06
-1.68578566921e+05
-5.42186285374e+06
-6.78060371782e+06
-4.97513635661e+05
-8.10804546608e+06
-1.01541187070e+07
-2.55665272912e+05
-7.89825368413e+06
-9.87798815475e+06
-3.87657145328e+05
-7.74310488586e+06
-9.69100350646e+06
-4.17571937678e+05
-1.05266280776e+07
-1.31686337208e+07
-8.77567746453e+05
-1.10868731548e+07
-1.39019378989e+07
-3.84046672806e+05
-8.02886161275e+06
-1.00475518352e+07
-6.69893525471e+05
-8.36742329478e+06
-1.04927452564e+07
-5.83984683194e+05
-8.01938881825e+06
-1.00507800637e+07
-6.28414330719e+05
-9.33428570082e+06
-1.16942690368e+07
-7.95407864892e+05
-1.02149133795e+07
-1.28072933946e+07
-7.52348481202e+05
-1.20661098911e+07
-1.51119280361e+07
2.72758768465e+04
-4.74613436390e+06
-5.93276592504e+06
9.31021910620e+04
-8.14911813519e+06
-1.01870624445e+07
-3.16563812787e+04
-5.22666491164e+06
-6.53345097186e+06
-7.29218840902e+04
-4.90497117014e+06
-6.13189150327e+06
-1.30746438182e+05
-6.21347036573e+06
-7.76855728008e+06
-9.83447220094e+04
-7.37581043506e+06
-9.22058255161e+06
-1.85788298251e+05
-5.64953364239e+06
-7.06573462080e+06
-4.80789501953e+05
-9.19187660197e+06
-1.15055526005e+07
2.27652209694e+05
-9.04049646176e+06
-1.13042028829e+07
9.12274250705e+04
-8.35984686643e+06
-1.04504307681e+07
1.76845821942e+05
-8.46787499126e+06
-1.05871518030e+07
-1.73112092322e+05
-7.81310669222e+06
-9.76878030869e+06
-1.97544346157e+05
-8.36738799325e+06
-1.04621494564e+07
-3.37917669394e+05
-9.95078513817e+06
-1.24456514254e+07
-4.97010057159e+05
-1.04702389545e+07
-1.31025357018e+07
-4.75692491404e+05
-1.03013458397e+07
-1.28904039803e+07
-4.02873649029e+05
-9.65766883156e+06
-1.20825852494e+07
1.35916142685e+05
-7.96845986685e+06
-9.96202365921e+06
8.42778458650e+04
-7.40072773768e+06
-9.25150948853e+06
8.87189678838e+04
-5.23530606778e+06
-6.54507217762e+06
1.27386368026e+05
-9.68536864397e+06
-1.21077579118e+07
-2.01634612053e+05
-7.79562915974e+06
-9.74779546494e+06
-2.32325858135e+05
-9.85468858856e+06
-1.23217834597e+07
-3.15245610233e+05
-9.04086600979e+06
-1.13079506047e+07
-6.20090696343e+03
-4.83691470821e+06
-6.04614835372e+06
-2.68814615647e+04
-6.99239423722e+06
-8.74055738548e+06
-2.27440583232e+04
-5.94399166140e+06
-7.43004396889e+06
-1.14305956619e+05
-5.04946027469e+06
-6.31344236992e+06
-1.05487805569e+05
-6.52088676542e+06
-8.15217492879e+06
-1.36011360402e+05
-7.32177009994e+06
-9.15379160568e+06
-1.85610623984e+05
-7.10085448681e+06
-8.87909991098e+06
-1.64207115458e+05
-7.53319807647e+06
-9.41873442568e+06
-4.15038440601e+04
-6.90568941897e+06
-8.63226976517e+06
1.00958505193e+05
-9.22503567464e+06
-1.15319878125e+07
2.46753011559e+05
-8.58159380604e+06
-1.07314283449e+07
-1.69506569985e+05
-4.80390944531e+06
-6.00862598707e+06
-9.12685182368e+04
-5.21299771265e+06
-6.51724771904e+06
-6.75988007634e+04
-1.27760546314e+06
-1.59924262568e+06
0.00000000000e+00
0.00000000000e+00
0.00000000000e+00
-3.37169433085e+04
-4.71147881421e+05
-5.90443062593e+05
-7.43490526257e+04
-1.57851387035e+06
-1.97533205429e+06
0.00000000000e+00
0.00000000000e+00
0.00000000000e+00
-1.18198132086e+05
-1.63211002645e+06
-2.04548322472e+06
-4.23307002372e+05
-3.11134807563e+06
-3.92501742508e+06
-3.04264817580e+05
-2.76636987925e+06
-3.47881808155e+06
-4.08218229787e+05
-3.76880308638e+06
-4.73856114115e+06
-4.23746075049e+05
-4.05369984279e+06
-5.09473704270e+06
-5.98395140097e+05
-6.91108953781e+06
-8.67118703650e+06
-3.48060135421e+05
-3.38056860697e+06
-4.24805221462e+06
-5.19195635254e+05
-1.15973519032e+07
-1.45112132625e+07
-2.21993527200e+05
-6.59485437710e+06
-8.24824054356e+06
5.13317565330e+04
-1.42771185543e+07
-1.78465172913e+07
-2.95964437434e+05
-1.34006375358e+07
-1.67548853380e+07
2.38572405919e+05
-1.90642054057e+07
-2.38321262707e+07
5.03024248152e+05
-1.41064032300e+07
-1.76442151441e+07
6.81033103778e+05
-1.56332223345e+07
-1.95600653973e+07
8.02111973778e+05
-1.96581686577e+07
-2.45931610196e+07
3.54190953664e+05
-8.71422072649e+06
-1.09017736085e+07
6.73666931697e+05
-1.52821717277e+07
-1.91212696179e+07
3.49857422961e+05
-1.19263781204e+07
-1.49143890421e+07
4.60568036113e+05
-1.39752319519e+07
-1.74785273546e+07
2.13116398045e+05
-1.04599367866e+07
-1.30776374120e+07
2.57583521109e+05
-1.14658923671e+07
-1.43359846794e+07
-7.43998335120e+04
-1.12687511381e+07
-1.40862485042e+07
3.60261128927e+05
-1.57952997873e+07
-1.97492628680e+07
5.30038963605e+05
-1.70493363078e+07
-2.13219701283e+07
3.01566255428e+05
-1.59479150128e+07
-1.99384605875e+07
-3.48063919491e+05
-6.03478010096e+06
-7.55601446218e+06
-2.98958940704e+05
-5.97099371532e+06
-7.47309431708e+06
-2.60371501202e+05
-6.21471253359e+06
-7.77520842822e+06
-2.32702423302e+05
-7.99560617930e+06
-9.99874305644e+06
-1.91728670627e+05
-9.87920124455e+06
-1.23513303274e+07
-2.63963465611e+05
-1.10082578543e+07
-1.37642810430e+07
1.89170004827e+05
-9.78974908729e+06
-1.22394735557e+07
3.10128391379e+04
-8.38623926984e+06
-1.04828737986e+07
-4.74736021011e+04
-7.45766099478e+06
-9.32226770130e+06
-1.64429689130e+05
-3.56416182868e+06
-4.45994414886e+06
-1.52154807162e+05
-4.09027268466e+06
-5.11638030149e+06
-2.10552043224e+05
-3.72632609890e+06
-4.66534034376e+06
1.19508179121e+05
-9.32001945196e+06
-1.16509854239e+07
1.92488818647e+04
-8.86435612348e+06
-1.10804748135e+07
2.60969248343e+04
-9.45762606009e+06
-1.18220811347e+07
-9.79887056835e+04
-5.61767631144e+06
-7.02316633715e+06
-7.70460006009e+04
-4.89729349978e+06
-6.12237719186e+06
-4.37185031360e+04
-1.19397524296e+06
-1.49347198269e+06
1.26693647829e+04
-1.09079382570e+07
-1.36349348794e+07
7.18822072918e+04
-1.01327766137e+07
-1.26662927102e+07
2.71093279489e+05
-1.44270628657e+07
-1.80370151102e+07
-4.07641331985e+04
-6.99051587582e+06
-8.73829653607e+06
-8.91180525889e+04
-8.16135271194e+06
-1.02023022802e+07
3.53279774613e+03
-7.26393567752e+06
-9.07992400081e+06
-4.74887375220e+04
-3.32252089374e+06
-4.15357843884e+06
-1.72623622952e+05
-8.84430381080e+06
-1.10574887577e+07
-1.01748130739e+05
-4.02482559282e+06
-5.03264269948e+06
-1.10569724972e+05
-4.28464787815e+06
-5.35759612054e+06
-1.47509697428e+05
-9.48388109777e+06
-1.18562887950e+07

</DataArray>
<DataArray type="Int64" Name="grid_dim" format="ascii">
2
2
2
2
2
2
2
2
2
2
2
2
2
2
2
2
2
2
2
2
2
2
2
2
2
2
2
2
2
2
2
2
2
2
2
2
2
2
2
2
2
2
2
2
2
2
2
2
2
2
2
2
2
2
2
2
2
2
2
2
2
2
2
2
2
2
2
2
2
2
2
2
2
2
2
2
2
2
2
2
2
2
2
2
2
2
2
2
2
2
2
2
2
2
2
2
2
2
2
2
2
2
2
2
2
2
2
2
2
2
2
2
2
2
2
2
2
2
2
2
2
2
2
2
2
2
2
2

</DataArray>
<DataArray type="Int64" Name="is_mortar" format="ascii">
0
0
0
0
0
0
0
0
0
0
0
0
0
0
0
0
0
0
0
0
0
0
0
0
0
0
0
0
0
0
0
0
0
0
0
0
0
0
0
0
0
0
0
0
0
0
0
0
0
0
0
0
0
0
0
0
0
0
0
0
0
0
0
0
0
0
0
0
0
0
0
0
0
0
0
0
0
0
0
0
0
0
0
0
0
0
0
0
0
0
0
0
0
0
0
0
0
0
0
0
0
0
0
0
0
0
0
0
0
0
0
0
0
0
0
0
0
0
0
0
0
0
0
0
0
0
0
0

</DataArray>
<DataArray type="Int64" Name="mortar_side" format="ascii">
0
0
0
0
0
0
0
0
0
0
0
0
0
0
0
0
0
0
0
0
0
0
0
0
0
0
0
0
0
0
0
0
0
0
0
0
0
0
0
0
0
0
0
0
0
0
0
0
0
0
0
0
0
0
0
0
0
0
0
0
0
0
0
0
0
0
0
0
0
0
0
0
0
0
0
0
0
0
0
0
0
0
0
0
0
0
0
0
0
0
0
0
0
0
0
0
0
0
0
0
0
0
0
0
0
0
0
0
0
0
0
0
0
0
0
0
0
0
0
0
0
0
0
0
0
0
0
0

</DataArray>
<DataArray type="Float64" Name="pressure" format="ascii">
2.85711825542e+07
3.01434266432e+07
2.93476146339e+07
2.71918310932e+07
2.80304443741e+07
2.59752653423e+07
2.68201260774e+07
2.55209878278e+07
2.60751104302e+07
2.54448228886e+07
2.58697754112e+07
2.61079788067e+07
2.61316589700e+07
2.70580280046e+07
2.68190364625e+07
2.85422464646e+07
2.78677051605e+07
3.01462091983e+07
2.93214609402e+07
3.15370815632e+07
3.06818706217e+07
3.27587241450e+07
3.19087866022e+07
3.31979941028e+07
3.26438715245e+07
3.33678122733e+07
3.29278522664e+07
3.26866458524e+07
3.27416115657e+07
3.16247108662e+07
3.19243381463e+07
3.07667178985e+07
2.77781304037e+07
2.76287136245e+07
2.85331542998e+07
2.92387731777e+07
2.95019552940e+07
2.92894187784e+07
2.99275425276e+07
3.06090296888e+07
2.70476872711e+07
2.74682016442e+07
2.68444123886e+07
3.17285181647e+07
3.14419974059e+07
3.20872089296e+07
3.12800922851e+07
3.20151308169e+07
3.13159191933e+07
2.74675954870e+07
2.83550384881e+07
2.85461823590e+07
2.69921334052e+07
3.13185406762e+07
3.05533961054e+07
3.02884310906e+07
2.90929772591e+07
2.90932716398e+07
2.83709465530e+07
2.99222448858e+07
2.99765393617e+07
3.06935590445e+07
3.06395589517e+07
2.99598331542e+07
2.85830797459e+07
3.01628031493e+07
2.93788918509e+07
2.71007098615e+07
2.79512240003e+07
2.60691458388e+07
2.68228890903e+07
2.53835693241e+07
2.60315762209e+07
2.54496835016e+07
2.57372213498e+07
2.59752614666e+07
2.60038060870e+07
2.71969040383e+07
2.68251990076e+07
2.85711787611e+07
2.80355173437e+07
3.01290240342e+07
2.93332119200e+07
3.16097015347e+07
3.07373092591e+07
3.26020268020e+07
3.18247130298e+07
3.34073376458e+07
3.26965214734e+07
3.31979904068e+07
3.29673776050e+07
3.27187246714e+07
3.26038720294e+07
3.15633236951e+07
3.18950329335e+07
3.07247103746e+07
3.15961626802e+07
3.22565614245e+07
3.17128604798e+07
2.68306316386e+07
2.65294335815e+07
2.70687212861e+07
2.92183217234e+07
2.97851652271e+07
3.05083406460e+07
2.94741853425e+07
2.88207059487e+07
2.80935567079e+07
2.84945610297e+07
2.81576658494e+07
2.73269171323e+07
3.09049104425e+07
3.07552882410e+07
3.11091867538e+07
2.74517794646e+07
2.73760858832e+07
2.67096258902e+07
3.02460699815e+07
3.05187791854e+07
3.13291288103e+07
2.87575248781e+07
2.94435127040e+07
3.02112586154e+07
2.79546820571e+07
2.92333289539e+07
2.84201688388e+07
2.78275097693e+07
2.98514526614e+07

</DataArray>
<DataArray type="Float64" Name="specific_volume" format="ascii">
1.00794015462e-03
1.00814488364e-03
1.00987326406e-03
1.00819270006e-03
1.01045211901e-03
1.00889052373e-03
1.01029358576e-03
1.01203230117e-03
1.01236699957e-03
1.01623118246e-03
1.01484216582e-03
1.01452581162e-03
1.01656580469e-03
1.01614545950e-03
1.01737027507e-03
1.01649426755e-03
1.01729245012e-03
1.01569336782e-03
1.01828877717e-03
1.01452624229e-03
1.01731582531e-03
1.01332829683e-03
1.01635100566e-03
1.01275336578e-03
1.01587519452e-03
1.00983112164e-03
1.01382031385e-03
1.00983450367e-03
1.01220301590e-03
1.00902580059e-03
1.01124944505e-03
1.01003743232e-03
1.01988161864e-03
1.01926835306e-03
1.02028284581e-03
1.02041671563e-03
1.01980308841e-03
1.01344868609e-03
1.01530324608e-03
1.01382710235e-03
1.01524524208e-03
1.01717782134e-03
1.01677618853e-03
1.01908098108e-03
1.01843586592e-03
1.01618657521e-03
1.01375706616e-03
1.01483591131e-03
1.01532443112e-03
1.01451069772e-03
1.01550316993e-03
1.01376944120e-03
1.01790155850e-03
1.01928056304e-03
1.01961560388e-03
1.01914626733e-03
1.01740681619e-03
1.01890957100e-03
1.01913629625e-03
1.01673870078e-03
1.01955818885e-03
1.01847048952e-03
1.01713362576e-03
1.02021473560e-03
1.01531023417e-03
1.01516386965e-03
1.01709874945e-03
1.01399332184e-03
1.01650228776e-03
1.01278000563e-03
1.01658547178e-03
1.01047108771e-03
1.01389175846e-03
1.01051314623e-03
1.01306974923e-03
1.00791296853e-03
1.01110942677e-03
1.00783162648e-03
1.00967476092e-03
1.00721918843e-03
1.00972827256e-03
1.00717152090e-03
1.00928634388e-03
1.00710770725e-03
1.00889299892e-03
1.00893139285e-03
1.01005058228e-03
1.01070223382e-03
1.01152328306e-03
1.01387478297e-03
1.01384378344e-03
1.01442137095e-03
1.01601835035e-03
1.01603509823e-03
1.01715775509e-03
1.01746555131e-03
1.01565683046e-03
1.01423598891e-03
1.01671350910e-03
1.01359978598e-03
1.01512396221e-03
1.01508065431e-03
1.01250817917e-03
1.01339670332e-03
1.01241184942e-03
1.01886182548e-03
1.01877014280e-03
1.01809852410e-03
1.01292742255e-03
1.01474599618e-03
1.01332958882e-03
1.01660212023e-03
1.01540858302e-03
1.01368146003e-03
1.01772426529e-03
1.01762400915e-03
1.01658112343e-03
1.01916175116e-03
1.01865668752e-03
1.01778019745e-03
1.01860249723e-03
1.01861752842e-03
1.01894659901e-03
1.01799849673e-03
1.01651081259e-03
1.01603881098e-03
1.01655428977e-03
1.01535109589e-03

</DataArray>
<DataArray type="Int64" Name="states" format="ascii">
1
1
1
1
1
1
1
1
1
2
1
1
1
2
1
1
1
1
1
1
1
1
1
1
1
1
1
1
1
1
1
1
1
1
1
1
1
1
1
1
1
1
1
1
1
1
1
1
1
1
1
1
1
1
1
1
1
1
1
1
1
1
1
1
0
0
0
0
0
0
2
0
0
2
0
0
0
0
0
0
0
0
0
0
0
0
0
0
0
0
0
0
0
0
0
0
0
0
0
0
0
0
0
0
0
0
0
0
0
0
0
0
0
0
0
0
0
0
0
0
0
0
0
0
0
0
0
0

</DataArray>
<DataArray type="Int64" Name="subdomain_id" format="ascii">
5
5
5
5
5
5
5
5
5
5
5
5
5
5
5
5
5
5
5
5
5
5
5
5
5
5
5
5
5
5
5
5
5
5
5
5
5
5
5
5
5
5
5
5
5
5
5
5
5
5
5
5
5
5
5
5
5
5
5
5
5
5
5
5
6
6
6
6
6
6
6
6
6
6
6
6
6
6
6
6
6
6
6
6
6
6
6
6
6
6
6
6
6
6
6
6
6
6
6
6
6
6
6
6
6
6
6
6
6
6
6
6
6
6
6
6
6
6
6
6
6
6
6
6
6
6
6
6

</DataArray>
</CellData>
</Piece>
</UnstructuredGrid>
</VTKFile>
