<?xml version="1.0"?>
<VTKFile type="UnstructuredGrid" version="0.1" byte_order="LittleEndian">
<!--This file was created by meshio v5.3.5-->
<UnstructuredGrid>
<Piece NumberOfPoints="164" NumberOfCells="256">
<Points>
<DataArray type="Float64" Name="Points" NumberOfComponents="3" format="ascii">
-3.62777204087e+01
5.93338573254e+02
-3.00000000000e+03
-8.19500009019e+01
7.40929074508e+02
-2.82410848990e+03
-2.12013651697e+02
8.66050259858e+02
-2.67499486775e+03
-4.06667660990e+02
9.49653563059e+02
-2.57536033081e+03
-6.36277720409e+02
9.79011139066e+02
-2.54037333413e+03
-8.65887779828e+02
9.49653563059e+02
-2.57536033081e+03
-1.06054178912e+03
8.66050259858e+02
-2.67499486775e+03
-1.19060543992e+03
7.40929074508e+02
-2.82410848990e+03
-1.23627772041e+03
5.93338573254e+02
-3.00000000000e+03
-1.19060543992e+03
4.45748072000e+02
-3.17589151010e+03
-1.06054178912e+03
3.20626886651e+02
-3.32500513225e+03
-8.65887779828e+02
2.37023583450e+02
-3.42463966919e+03
-6.36277720409e+02
2.07666007442e+02
-3.45962666587e+03
-4.06667660990e+02
2.37023583450e+02
-3.42463966919e+03
-2.12013651697e+02
3.20626886651e+02
-3.32500513225e+03
-8.19500009019e+01
4.45748072000e+02
-3.17589151010e+03
-9.82301878795e+02
6.57836979237e+02
-2.92313379295e+03
-2.35388105079e+02
5.41264947208e+02
-3.06205893092e+03
-5.69871316028e+02
8.40374504474e+02
-2.70559404147e+03
-7.11529394962e+02
3.50161918889e+02
-3.28980665147e+03
-4.01907468113e+02
3.68697219987e+02
-3.26771713980e+03
-3.01147993968e+02
7.32392613644e+02
-2.83428184780e+03
-8.72831799617e+02
8.02387168171e+02
-2.75086558598e+03
-9.56998297522e+02
4.55590063739e+02
-3.16416228109e+03
-3.83495241035e+02
8.36515227620e+02
-2.71019334853e+03
-5.24957334276e+02
6.99549662937e+02
-2.87342255230e+03
-3.68806365849e+02
6.08303991849e+02
-2.98216490863e+03
-5.60624169490e+02
5.42627281744e+02
-3.06043536384e+03
-7.57039155452e+02
6.08228297855e+02
-2.98225511721e+03
-7.59403827432e+02
4.72412129709e+02
-3.14411452353e+03
-7.22504460330e+02
7.28377464595e+02
-2.83906691610e+03
-2.64377961448e+02
4.33055503539e+02
-3.19101792417e+03
-8.89060199783e+02
3.50161918889e+02
-3.28980665147e+03
-7.33474615242e+02
8.59960767873e+02
-2.68225204170e+03
-1.02657022686e+03
7.66800870444e+02
-2.79327568415e+03
-1.06255581105e+03
5.40549452857e+02
-3.06291162388e+03
-1.90023907337e+02
6.50395874092e+02
-2.93200175674e+03
-5.47512317998e+02
3.06492151437e+02
-3.34185025372e+03
-5.83826678727e+02
4.23842427026e+02
-3.20199764120e+03
-9.03659794049e+02
5.46923384679e+02
-3.05531546774e+03
-4.02488458118e+02
4.86298561892e+02
-3.12756531809e+03
-3.62777204087e+01
5.93338573254e+02
-3.00000000000e+03
-8.19500009019e+01
7.40929074508e+02
-2.82410848990e+03
-2.12013651697e+02
8.66050259858e+02
-2.67499486775e+03
-4.06667660990e+02
9.49653563059e+02
-2.57536033081e+03
-6.36277720409e+02
9.79011139066e+02
-2.54037333413e+03
-8.65887779828e+02
9.49653563059e+02
-2.57536033081e+03
-1.06054178912e+03
8.66050259858e+02
-2.67499486775e+03
-1.19060543992e+03
7.40929074508e+02
-2.82410848990e+03
-1.23627772041e+03
5.93338573254e+02
-3.00000000000e+03
-1.19060543992e+03
4.45748072000e+02
-3.17589151010e+03
-1.06054178912e+03
3.20626886651e+02
-3.32500513225e+03
-8.65887779828e+02
2.37023583450e+02
-3.42463966919e+03
-6.36277720409e+02
2.07666007442e+02
-3.45962666587e+03
-4.06667660990e+02
2.37023583450e+02
-3.42463966919e+03
-2.12013651697e+02
3.20626886651e+02
-3.32500513225e+03
-8.19500009019e+01
4.45748072000e+02
-3.17589151010e+03
-9.82301878795e+02
6.57836979237e+02
-2.92313379295e+03
-2.35388105079e+02
5.41264947208e+02
-3.06205893092e+03
-5.69871316028e+02
8.40374504474e+02
-2.70559404147e+03
-7.11529394962e+02
3.50161918889e+02
-3.28980665147e+03
-4.01907468113e+02
3.68697219987e+02
-3.26771713980e+03
-3.01147993968e+02
7.32392613644e+02
-2.83428184780e+03
-8.72831799617e+02
8.02387168171e+02
-2.75086558598e+03
-9.56998297522e+02
4.55590063739e+02
-3.16416228109e+03
-3.83495241035e+02
8.36515227620e+02
-2.71019334853e+03
-5.24957334276e+02
6.99549662937e+02
-2.87342255230e+03
-3.68806365849e+02
6.08303991849e+02
-2.98216490863e+03
-5.60624169490e+02
5.42627281744e+02
-3.06043536384e+03
-7.57039155452e+02
6.08228297855e+02
-2.98225511721e+03
-7.59403827432e+02
4.72412129709e+02
-3.14411452353e+03
-7.22504460330e+02
7.28377464595e+02
-2.83906691610e+03
-2.64377961448e+02
4.33055503539e+02
-3.19101792417e+03
-8.89060199783e+02
3.50161918889e+02
-3.28980665147e+03
-7.33474615242e+02
8.59960767873e+02
-2.68225204170e+03
-1.02657022686e+03
7.66800870444e+02
-2.79327568415e+03
-1.06255581105e+03
5.40549452857e+02
-3.06291162388e+03
-1.90023907337e+02
6.50395874092e+02
-2.93200175674e+03
-5.47512317998e+02
3.06492151437e+02
-3.34185025372e+03
-5.83826678727e+02
4.23842427026e+02
-3.20199764120e+03
-9.03659794049e+02
5.46923384679e+02
-3.05531546774e+03
-4.02488458118e+02
4.86298561892e+02
-3.12756531809e+03
1.39247167980e+02
4.29658966839e+02
-3.00000000000e+03
9.35748874867e+01
5.77249468093e+02
-2.82410848990e+03
-3.64887633081e+01
7.02370653443e+02
-2.67499486775e+03
-2.31142772601e+02
7.85973956644e+02
-2.57536033081e+03
-4.60752832020e+02
8.15331532651e+02
-2.54037333413e+03
-6.90362891439e+02
7.85973956644e+02
-2.57536033081e+03
-8.85016900732e+02
7.02370653443e+02
-2.67499486775e+03
-1.01508055153e+03
5.77249468093e+02
-2.82410848990e+03
-1.06075283202e+03
4.29658966839e+02
-3.00000000000e+03
-1.01508055153e+03
2.82068465585e+02
-3.17589151010e+03
-8.85016900732e+02
1.56947280236e+02
-3.32500513225e+03
-6.90362891439e+02
7.33439770346e+01
-3.42463966919e+03
-4.60752832020e+02
4.39864010275e+01
-3.45962666587e+03
-2.31142772601e+02
7.33439770346e+01
-3.42463966919e+03
-3.64887633081e+01
1.56947280236e+02
-3.32500513225e+03
9.35748874867e+01
2.82068465585e+02
-3.17589151010e+03
-3.85501157466e+02
1.86482312474e+02
-3.28980665147e+03
-5.42147648576e+02
6.95030235725e+02
-2.68374283693e+03
-8.39068547352e+02
3.81288122828e+02
-3.05764612713e+03
-7.08121434506e+01
4.83655900143e+02
-2.93564896075e+03
-7.81473409133e+02
5.67407476355e+02
-2.83583771891e+03
-6.34476559427e+02
2.26776986862e+02
-3.24178532851e+03
-2.34565328910e+02
6.48692719502e+02
-2.73896573837e+03
-1.42041358264e+02
2.85161188911e+02
-3.17220574597e+03
-1.44990189488e+01
3.72601666001e+02
-3.06799824326e+03
-2.65198556211e+02
4.05153668847e+02
-3.02920427692e+03
-2.55159122143e+02
5.40647758235e+02
-2.86772870912e+03
-4.63043301905e+02
4.99903277397e+02
-2.91628609053e+03
-5.29764428503e+02
3.64241917225e+02
-3.07796100389e+03
-6.80842827495e+02
4.59203661243e+02
-2.96479000430e+03
-3.76782071951e+02
3.02472868463e+02
-3.15157448967e+03
-8.24371166880e+01
5.92144412527e+02
-2.80635738636e+03
-7.13535311394e+02
6.72835621205e+02
-2.71019334853e+03
-3.74101443840e+02
7.12031896534e+02
-2.66348104659e+03
-9.07006645091e+02
4.86716267677e+02
-2.93200175674e+03
-8.20248311744e+02
2.73234816746e+02
-3.18641904284e+03
-2.26842404126e+02
1.96767464581e+02
-3.27754928450e+03
-5.42773360088e+02
1.32647419350e+02
-3.35396457876e+03
-6.10120761438e+02
5.73350861291e+02
-2.82875466856e+03
-7.00880134904e+02
3.40949100981e+02
-3.10572030134e+03
-4.13189601135e+02
6.11609458114e+02
-2.78315984835e+03
1.39247167980e+02
4.29658966839e+02
-3.00000000000e+03
9.35748874867e+01
5.77249468093e+02
-2.82410848990e+03
-3.64887633081e+01
7.02370653443e+02
-2.67499486775e+03
-2.31142772601e+02
7.85973956644e+02
-2.57536033081e+03
-4.60752832020e+02
8.15331532651e+02
-2.54037333413e+03
-6.90362891439e+02
7.85973956644e+02
-2.57536033081e+03
-8.85016900732e+02
7.02370653443e+02
-2.67499486775e+03
-1.01508055153e+03
5.77249468093e+02
-2.82410848990e+03
-1.06075283202e+03
4.29658966839e+02
-3.00000000000e+03
-1.01508055153e+03
2.82068465585e+02
-3.17589151010e+03
-8.85016900732e+02
1.56947280236e+02
-3.32500513225e+03
-6.90362891439e+02
7.33439770346e+01
-3.42463966919e+03
-4.60752832020e+02
4.39864010275e+01
-3.45962666587e+03
-2.31142772601e+02
7.33439770346e+01
-3.42463966919e+03
-3.64887633081e+01
1.56947280236e+02
-3.32500513225e+03
9.35748874867e+01
2.82068465585e+02
-3.17589151010e+03
-3.85501157466e+02
1.86482312474e+02
-3.28980665147e+03
-5.42147648576e+02
6.95030235725e+02
-2.68374283693e+03
-8.39068547352e+02
3.81288122828e+02
-3.05764612713e+03
-7.08121434506e+01
4.83655900143e+02
-2.93564896075e+03
-7.81473409133e+02
5.67407476355e+02
-2.83583771891e+03
-6.34476559427e+02
2.26776986862e+02
-3.24178532851e+03
-2.34565328910e+02
6.48692719502e+02
-2.73896573837e+03
-1.42041358264e+02
2.85161188911e+02
-3.17220574597e+03
-1.44990189488e+01
3.72601666001e+02
-3.06799824326e+03
-2.65198556211e+02
4.05153668847e+02
-3.02920427692e+03
-2.55159122143e+02
5.40647758235e+02
-2.86772870912e+03
-4.63043301905e+02
4.99903277397e+02
-2.91628609053e+03
-5.29764428503e+02
3.64241917225e+02
-3.07796100389e+03
-6.80842827495e+02
4.59203661243e+02
-2.96479000430e+03
-3.76782071951e+02
3.02472868463e+02
-3.15157448967e+03
-8.24371166880e+01
5.92144412527e+02
-2.80635738636e+03
-7.13535311394e+02
6.72835621205e+02
-2.71019334853e+03
-3.74101443840e+02
7.12031896534e+02
-2.66348104659e+03
-9.07006645091e+02
4.86716267677e+02
-2.93200175674e+03
-8.20248311744e+02
2.73234816746e+02
-3.18641904284e+03
-2.26842404126e+02
1.96767464581e+02
-3.27754928450e+03
-5.42773360088e+02
1.32647419350e+02
-3.35396457876e+03
-6.10120761438e+02
5.73350861291e+02
-2.82875466856e+03
-7.00880134904e+02
3.40949100981e+02
-3.10572030134e+03
-4.13189601135e+02
6.11609458114e+02
-2.78315984835e+03

</DataArray>
</Points>
<Cells>
<DataArray type="Int64" Name="connectivity" format="ascii">
0
1
36
0
15
17
0
17
36
1
2
21
1
21
36
2
3
24
2
21
24
3
4
18
3
18
24
4
5
33
4
18
33
5
6
22
5
22
33
6
7
34
6
22
34
7
8
16
7
16
34
8
9
35
8
16
35
9
10
23
9
23
35
10
11
32
10
23
32
11
12
19
11
19
32
12
13
37
12
19
37
13
14
20
13
20
37
14
15
31
14
20
31
15
17
31
16
22
30
16
22
34
16
28
30
16
28
39
16
35
39
17
26
36
17
26
40
17
31
40
18
24
25
18
25
30
18
30
33
19
29
32
19
29
38
19
37
38
20
31
40
20
37
38
20
38
40
21
24
25
21
25
26
21
26
36
22
30
33
23
29
32
23
29
39
23
35
39
25
26
27
25
27
28
25
28
30
26
27
40
27
28
29
27
29
38
27
38
40
28
29
39
41
42
77
41
56
58
41
58
77
42
43
62
42
62
77
43
44
65
43
62
65
44
45
59
44
59
65
45
46
74
45
59
74
46
47
63
46
63
74
47
48
75
47
63
75
48
49
57
48
57
75
49
50
76
49
57
76
50
51
64
50
64
76
51
52
73
51
64
73
52
53
60
52
60
73
53
54
78
53
60
78
54
55
61
54
61
78
55
56
72
55
61
72
56
58
72
57
63
71
57
63
75
57
69
71
57
69
80
57
76
80
58
67
77
58
67
81
58
72
81
59
65
66
59
66
71
59
71
74
60
70
73
60
70
79
60
78
79
61
72
81
61
78
79
61
79
81
62
65
66
62
66
67
62
67
77
63
71
74
64
70
73
64
70
80
64
76
80
66
67
68
66
68
69
66
69
71
67
68
81
68
69
70
68
70
79
68
79
81
69
70
80
82
83
101
82
97
106
82
101
106
83
84
113
83
101
113
84
85
104
84
104
113
85
86
115
85
104
115
86
87
99
86
99
115
87
88
114
87
99
114
88
89
102
88
102
114
89
90
116
89
102
116
90
91
100
90
100
116
91
92
117
91
100
117
92
93
103
92
103
117
93
94
119
93
103
119
94
95
98
94
98
119
95
96
118
95
98
118
96
97
105
96
105
118
97
105
106
98
103
112
98
103
119
98
112
118
99
114
120
99
115
122
99
120
122
100
111
116
100
111
121
100
117
121
101
106
107
101
107
108
101
108
113
102
111
116
102
111
120
102
114
120
103
110
112
103
110
121
103
117
121
104
108
113
104
108
122
104
115
122
105
106
107
105
107
112
105
112
118
107
108
109
107
109
110
107
110
112
108
109
122
109
110
111
109
111
120
109
120
122
110
111
121
123
124
142
123
138
147
123
142
147
124
125
154
124
142
154
125
126
145
125
145
154
126
127
156
126
145
156
127
128
140
127
140
156
128
129
155
128
140
155
129
130
143
129
143
155
130
131
157
130
143
157
131
132
141
131
141
157
132
133
158
132
141
158
133
134
144
133
144
158
134
135
160
134
144
160
135
136
139
135
139
160
136
137
159
136
139
159
137
138
146
137
146
159
138
146
147
139
144
153
139
144
160
139
153
159
140
155
161
140
156
163
140
161
163
141
152
157
141
152
162
141
158
162
142
147
148
142
148
149
142
149
154
143
152
157
143
152
161
143
155
161
144
151
153
144
151
162
144
158
162
145
149
154
145
149
163
145
156
163
146
147
148
146
148
153
146
153
159
148
149
150
148
150
151
148
151
153
149
150
163
150
151
152
150
152
161
150
161
163
151
152
162

</DataArray>
<DataArray type="Int64" Name="offsets" format="ascii">
3
6
9
12
15
18
21
24
27
30
33
36
39
42
45
48
51
54
57
60
63
66
69
72
75
78
81
84
87
90
93
96
99
102
105
108
111
114
117
120
123
126
129
132
135
138
141
144
147
150
153
156
159
162
165
168
171
174
177
180
183
186
189
192
195
198
201
204
207
210
213
216
219
222
225
228
231
234
237
240
243
246
249
252
255
258
261
264
267
270
273
276
279
282
285
288
291
294
297
300
303
306
309
312
315
318
321
324
327
330
333
336
339
342
345
348
351
354
357
360
363
366
369
372
375
378
381
384
387
390
393
396
399
402
405
408
411
414
417
420
423
426
429
432
435
438
441
444
447
450
453
456
459
462
465
468
471
474
477
480
483
486
489
492
495
498
501
504
507
510
513
516
519
522
525
528
531
534
537
540
543
546
549
552
555
558
561
564
567
570
573
576
579
582
585
588
591
594
597
600
603
606
609
612
615
618
621
624
627
630
633
636
639
642
645
648
651
654
657
660
663
666
669
672
675
678
681
684
687
690
693
696
699
702
705
708
711
714
717
720
723
726
729
732
735
738
741
744
747
750
753
756
759
762
765
768

</DataArray>
<DataArray type="Int64" Name="types" format="ascii">
5
5
5
5
5
5
5
5
5
5
5
5
5
5
5
5
5
5
5
5
5
5
5
5
5
5
5
5
5
5
5
5
5
5
5
5
5
5
5
5
5
5
5
5
5
5
5
5
5
5
5
5
5
5
5
5
5
5
5
5
5
5
5
5
5
5
5
5
5
5
5
5
5
5
5
5
5
5
5
5
5
5
5
5
5
5
5
5
5
5
5
5
5
5
5
5
5
5
5
5
5
5
5
5
5
5
5
5
5
5
5
5
5
5
5
5
5
5
5
5
5
5
5
5
5
5
5
5
5
5
5
5
5
5
5
5
5
5
5
5
5
5
5
5
5
5
5
5
5
5
5
5
5
5
5
5
5
5
5
5
5
5
5
5
5
5
5
5
5
5
5
5
5
5
5
5
5
5
5
5
5
5
5
5
5
5
5
5
5
5
5
5
5
5
5
5
5
5
5
5
5
5
5
5
5
5
5
5
5
5
5
5
5
5
5
5
5
5
5
5
5
5
5
5
5
5
5
5
5
5
5
5
5
5
5
5
5
5
5
5
5
5
5
5
5
5
5
5
5
5
5
5
5
5
5
5

</DataArray>
</Cells>
<PointData>
<DataArray type="Int64" Name="node_id" format="ascii">
0
1
2
3
4
5
6
7
8
9
10
11
12
13
14
15
16
17
18
19
20
21
22
23
24
25
26
27
28
29
30
31
32
33
34
35
36
37
38
39
40
41
42
43
44
45
46
47
48
49
50
51
52
53
54
55
56
57
58
59
60
61
62
63
64
65
66
67
68
69
70
71
72
73
74
75
76
77
78
79
80
81
0
1
2
3
4
5
6
7
8
9
10
11
12
13
14
15
16
17
18
19
20
21
22
23
24
25
26
27
28
29
30
31
32
33
34
35
36
37
38
39
40
41
42
43
44
45
46
47
48
49
50
51
52
53
54
55
56
57
58
59
60
61
62
63
64
65
66
67
68
69
70
71
72
73
74
75
76
77
78
79
80
81

</DataArray>
</PointData>
<CellData>
<DataArray type="Int64" Name="cell_id" format="ascii">
0
1
2
3
4
5
6
7
8
9
10
11
12
13
14
15
16
17
18
19
20
21
22
23
24
25
26
27
28
29
30
31
32
33
34
35
36
37
38
39
40
41
42
43
44
45
46
47
48
49
50
51
52
53
54
55
56
57
58
59
60
61
62
63
64
65
66
67
68
69
70
71
72
73
74
75
76
77
78
79
80
81
82
83
84
85
86
87
88
89
90
91
92
93
94
95
96
97
98
99
100
101
102
103
104
105
106
107
108
109
110
111
112
113
114
115
116
117
118
119
120
121
122
123
124
125
126
127
0
1
2
3
4
5
6
7
8
9
10
11
12
13
14
15
16
17
18
19
20
21
22
23
24
25
26
27
28
29
30
31
32
33
34
35
36
37
38
39
40
41
42
43
44
45
46
47
48
49
50
51
52
53
54
55
56
57
58
59
60
61
62
63
64
65
66
67
68
69
70
71
72
73
74
75
76
77
78
79
80
81
82
83
84
85
86
87
88
89
90
91
92
93
94
95
96
97
98
99
100
101
102
103
104
105
106
107
108
109
110
111
112
113
114
115
116
117
118
119
120
121
122
123
124
125
126
127

</DataArray>
<DataArray type="Int64" Name="grid_dim" format="ascii">
2
2
2
2
2
2
2
2
2
2
2
2
2
2
2
2
2
2
2
2
2
2
2
2
2
2
2
2
2
2
2
2
2
2
2
2
2
2
2
2
2
2
2
2
2
2
2
2
2
2
2
2
2
2
2
2
2
2
2
2
2
2
2
2
2
2
2
2
2
2
2
2
2
2
2
2
2
2
2
2
2
2
2
2
2
2
2
2
2
2
2
2
2
2
2
2
2
2
2
2
2
2
2
2
2
2
2
2
2
2
2
2
2
2
2
2
2
2
2
2
2
2
2
2
2
2
2
2
2
2
2
2
2
2
2
2
2
2
2
2
2
2
2
2
2
2
2
2
2
2
2
2
2
2
2
2
2
2
2
2
2
2
2
2
2
2
2
2
2
2
2
2
2
2
2
2
2
2
2
2
2
2
2
2
2
2
2
2
2
2
2
2
2
2
2
2
2
2
2
2
2
2
2
2
2
2
2
2
2
2
2
2
2
2
2
2
2
2
2
2
2
2
2
2
2
2
2
2
2
2
2
2
2
2
2
2
2
2
2
2
2
2
2
2
2
2
2
2
2
2
2
2
2
2
2
2

</DataArray>
<DataArray type="Float64" Name="interface_darcy_flux" format="ascii">
-1.25630638021e-05
-1.89068990363e-05
-9.99428956518e-06
-1.40530250223e-05
-8.00546451369e-06
-1.10979561576e-05
-7.50408942195e-06
-1.45536978017e-05
-7.84366201296e-06
-1.22767632025e-05
-7.64078531596e-06
-1.22861833603e-05
-6.80489060170e-06
-9.75597342302e-06
-6.50910217911e-06
-1.47464397135e-05
-7.23192202975e-06
-1.13702887519e-05
-8.10349428462e-06
-1.51491148745e-05
-7.31098424050e-06
-1.14565476180e-05
-7.60386739457e-06
-1.40140828992e-05
-7.65787632770e-06
-1.26286719982e-05
-8.41430785203e-06
-1.79444155391e-05
-9.64744575584e-06
-2.88077557572e-05
-1.33913231673e-05
-1.32901256488e-05
-7.41560525340e-06
-5.42503639350e-06
-7.32459381991e-06
-5.36299198662e-06
-4.61094104480e-06
-7.53278889782e-06
-8.25517305611e-06
-8.66678438956e-06
-7.39415352538e-06
-7.20958830578e-06
-5.57279935401e-06
-6.74608299666e-06
-6.38129151152e-06
-6.65661215494e-06
-8.72676831203e-06
-8.15261777230e-06
-9.37923243463e-06
-8.16372743615e-06
-8.67710160276e-06
-7.34952708923e-06
-4.86263438341e-06
-6.23580218573e-06
-4.63491687584e-06
-3.80451387787e-06
-9.61794753637e-06
-1.01408965986e-05
-6.85613899813e-06
-8.40909166041e-06
-8.17254404483e-06
-7.40295330360e-06
-7.82500741256e-06
-5.45704150475e-06
-1.00892023907e-05
-1.53850185597e-05
-8.76999144134e-06
-1.16875172967e-05
-6.81086566775e-06
-9.17119189647e-06
-7.58748787818e-06
-1.31672629772e-05
-7.52092127778e-06
-1.08958289324e-05
-7.83340876076e-06
-1.17073102160e-05
-6.71224081934e-06
-8.83893226205e-06
-6.40586175704e-06
-1.35233783521e-05
-6.80671405547e-06
-1.06792960943e-05
-8.28931163326e-06
-1.50963089084e-05
-7.90805990487e-06
-9.37037962301e-06
-7.85761070068e-06
-1.26096196616e-05
-6.35178374427e-06
-1.13528680634e-05
-7.99626713832e-06
-1.39515846765e-05
-8.78372932116e-06
-1.74135081805e-05
-9.79669277993e-06
-1.00707612867e-05
-7.26335742560e-06
-5.21797916854e-06
-6.57252910153e-06
-5.02553670509e-06
-4.95706792583e-06
-5.77431704876e-06
-5.63355093962e-06
-6.25048778004e-06
-6.77460397250e-06
-6.31162238249e-06
-5.56312587801e-06
-5.66019471179e-06
-4.77520686339e-06
-5.22359970946e-06
-6.36864706580e-06
-6.42693664704e-06
-6.88343432929e-06
-6.93448493440e-06
-6.40774169357e-06
-5.72755499135e-06
-4.80597376742e-06
-5.89203979872e-06
-4.12899129821e-06
-3.86112756916e-06
-6.59316504867e-06
-7.29127027819e-06
-5.50932236617e-06
-5.58584232103e-06
-6.02403550040e-06
-5.31867388637e-06
-5.39606427476e-06
-4.43838510713e-06
-8.53262334290e-06
-6.04320215545e-06
-5.24332909982e-06
-6.27851991997e-06
-4.85237061590e-06
-8.57315290753e-06
-4.91057284942e-06
-6.70829206584e-06
-5.22311301752e-06
-6.46011601693e-06
-4.31814887159e-06
-5.26953834140e-06
-4.20035302820e-06
-7.35911022828e-06
-4.45225308917e-06
-4.97882758412e-06
-4.23406993819e-06
-7.46964074405e-06
-4.26143865816e-06
-7.19391171675e-06
-4.88352272810e-06
-9.31059079291e-06
-6.01891462131e-06
-5.65385126697e-06
-4.32938592052e-06
-9.97080761472e-06
-4.94793097864e-06
-7.50326120350e-06
-5.18931568873e-06
-7.98753074255e-06
-4.81571535111e-06
-5.04999200315e-06
-5.26821139266e-06
-4.04959900599e-06
-3.55871626842e-06
-3.53056799219e-06
-3.10201603656e-06
-3.80838394030e-06
-3.89663702887e-06
-2.99415877221e-06
-2.65344334989e-06
-5.41822995272e-06
-4.87071409747e-06
-4.09069185857e-06
-3.80733422318e-06
-3.12513237454e-06
-3.14634740691e-06
-4.69802063951e-06
-3.68119463669e-06
-3.38816317770e-06
-3.49541058019e-06
-3.31974656276e-06
-3.25308161291e-06
-5.14285169767e-06
-4.62509762850e-06
-4.32894573938e-06
-4.62427311414e-06
-5.23500035752e-06
-3.64621180229e-06
-3.54832989791e-06
-4.26093389683e-06
-3.51688330447e-06
-3.34474472856e-06
-3.30626686002e-06
-4.98969016573e-06
-5.06022190211e-06
-1.35552674947e-06
-3.65829524362e-06
4.08278966152e-07
8.24809603072e-07
2.07174998837e-06
3.05163947983e-06
4.50996705125e-06
5.31878540211e-06
4.79500225731e-06
4.04246486875e-06
4.57642990447e-06
6.65971728178e-06
4.77236898055e-06
4.15253960430e-06
4.77153371273e-06
6.94349658182e-06
4.92040882466e-06
4.09064268397e-06
5.61933241510e-06
4.48994864207e-06
6.90218475088e-06
-3.09390289511e-06
3.37875935778e-06
-4.30208364236e-06
9.54812492685e-07
-4.76245801269e-06
2.51807512241e-07
-4.13710675220e-06
-5.27019285945e-07
-1.69543026271e-06
1.28954112642e-05
7.10770144760e-06
8.79380874478e-06
5.24464803644e-06
4.78492794806e-06
6.35258674781e-06
6.11850838970e-06
5.22025246581e-06
4.25841450086e-06
1.03969047777e-05
1.20084937688e-05
7.16736841117e-06
5.88469757633e-06
5.49680392526e-06
4.73288058724e-06
1.15013526734e-05
7.57731732247e-06
5.94079429854e-06
6.24372059508e-06
6.58443281113e-06
5.26007672927e-06
1.23058223873e-05
1.57618197481e-05
1.13298078612e-05
1.17612282455e-05
1.41006133420e-05
1.09357803644e-05
7.68114631597e-06
9.36671537794e-06
7.03082216100e-06
6.54782072272e-06
6.70444898389e-06

</DataArray>
<DataArray type="Int64" Name="interface_id" format="ascii">
0
0
0
0
0
0
0
0
0
0
0
0
0
0
0
0
0
0
0
0
0
0
0
0
0
0
0
0
0
0
0
0
0
0
0
0
0
0
0
0
0
0
0
0
0
0
0
0
0
0
0
0
0
0
0
0
0
0
0
0
0
0
0
0
0
0
0
0
0
0
0
0
0
0
0
0
0
0
0
0
0
0
0
0
0
0
0
0
0
0
0
0
0
0
0
0
0
0
0
0
0
0
0
0
0
0
0
0
0
0
0
0
0
0
0
0
0
0
0
0
0
0
0
0
0
0
0
0
1
1
1
1
1
1
1
1
1
1
1
1
1
1
1
1
1
1
1
1
1
1
1
1
1
1
1
1
1
1
1
1
1
1
1
1
1
1
1
1
1
1
1
1
1
1
1
1
1
1
1
1
1
1
1
1
1
1
1
1
1
1
1
1
1
1
1
1
1
1
1
1
1
1
1
1
1
1
1
1
1
1
1
1
1
1
1
1
1
1
1
1
1
1
1
1
1
1
1
1
1
1
1
1
1
1
1
1
1
1
1
1
1
1
1
1
1
1
1
1
1
1
1
1
1
1
1
1

</DataArray>
<DataArray type="Int64" Name="is_mortar" format="ascii">
1
1
1
1
1
1
1
1
1
1
1
1
1
1
1
1
1
1
1
1
1
1
1
1
1
1
1
1
1
1
1
1
1
1
1
1
1
1
1
1
1
1
1
1
1
1
1
1
1
1
1
1
1
1
1
1
1
1
1
1
1
1
1
1
1
1
1
1
1
1
1
1
1
1
1
1
1
1
1
1
1
1
1
1
1
1
1
1
1
1
1
1
1
1
1
1
1
1
1
1
1
1
1
1
1
1
1
1
1
1
1
1
1
1
1
1
1
1
1
1
1
1
1
1
1
1
1
1
1
1
1
1
1
1
1
1
1
1
1
1
1
1
1
1
1
1
1
1
1
1
1
1
1
1
1
1
1
1
1
1
1
1
1
1
1
1
1
1
1
1
1
1
1
1
1
1
1
1
1
1
1
1
1
1
1
1
1
1
1
1
1
1
1
1
1
1
1
1
1
1
1
1
1
1
1
1
1
1
1
1
1
1
1
1
1
1
1
1
1
1
1
1
1
1
1
1
1
1
1
1
1
1
1
1
1
1
1
1
1
1
1
1
1
1
1
1
1
1
1
1
1
1
1
1
1
1

</DataArray>
<DataArray type="Int64" Name="mortar_side" format="ascii">
1
1
1
1
1
1
1
1
1
1
1
1
1
1
1
1
1
1
1
1
1
1
1
1
1
1
1
1
1
1
1
1
1
1
1
1
1
1
1
1
1
1
1
1
1
1
1
1
1
1
1
1
1
1
1
1
1
1
1
1
1
1
1
1
2
2
2
2
2
2
2
2
2
2
2
2
2
2
2
2
2
2
2
2
2
2
2
2
2
2
2
2
2
2
2
2
2
2
2
2
2
2
2
2
2
2
2
2
2
2
2
2
2
2
2
2
2
2
2
2
2
2
2
2
2
2
2
2
1
1
1
1
1
1
1
1
1
1
1
1
1
1
1
1
1
1
1
1
1
1
1
1
1
1
1
1
1
1
1
1
1
1
1
1
1
1
1
1
1
1
1
1
1
1
1
1
1
1
1
1
1
1
1
1
1
1
1
1
1
1
1
1
2
2
2
2
2
2
2
2
2
2
2
2
2
2
2
2
2
2
2
2
2
2
2
2
2
2
2
2
2
2
2
2
2
2
2
2
2
2
2
2
2
2
2
2
2
2
2
2
2
2
2
2
2
2
2
2
2
2
2
2
2
2
2
2

</DataArray>
<DataArray type="Float64" Name="u_interface" NumberOfComponents="3" format="ascii">
-1.25241052376e-05
1.29752019396e-04
-6.46021821883e-04
-1.01495336263e-05
8.86443035290e-05
-5.79210482363e-04
-2.02081493114e-05
9.85768314027e-05
-6.17301018457e-04
-2.64913242302e-05
1.51229048160e-04
-7.06862191599e-04
-3.13529781580e-05
1.30044331221e-04
-6.79099955437e-04
-4.76231451493e-05
1.58253818015e-04
-7.55725815891e-04
-4.49646990459e-05
1.45670106005e-04
-7.30730504766e-04
-7.72231268291e-05
1.36304587916e-04
-7.75751289875e-04
-6.90618850636e-05
1.40807991256e-04
-7.68538269989e-04
-1.05176432386e-04
1.13412896556e-04
-7.73703418641e-04
-9.48747847837e-05
1.19938510273e-04
-7.78261604479e-04
-1.31776637416e-04
8.90220815437e-05
-7.62595613213e-04
-1.18772255395e-04
9.37017407033e-05
-7.74084037596e-04
-1.54826840739e-04
7.12019865888e-05
-7.32657057055e-04
-1.39766948382e-04
7.06940747044e-05
-7.54635576177e-04
-1.69294338871e-04
3.57181104870e-05
-6.98272275910e-04
-1.58399315640e-04
4.96307071332e-05
-7.21749856087e-04
-1.76282562351e-04
1.08301263481e-05
-6.48231143532e-04
-1.62763142636e-04
1.75877541368e-05
-6.82225082236e-04
-1.62684893801e-04
-1.05119814811e-05
-5.96273410936e-04
-1.60698059571e-04
-4.33620060255e-06
-6.30361329056e-04
-1.42826914544e-04
-2.85433461697e-05
-5.36062035704e-04
-1.46622594385e-04
-2.46031425767e-05
-5.77550929864e-04
-1.08695228300e-04
-2.25338935715e-05
-5.04136454762e-04
-1.22706353442e-04
-3.09154626415e-05
-5.36178160095e-04
-7.20260499553e-05
-6.93247853992e-06
-4.78629188928e-04
-9.04113876540e-05
-1.78721497245e-05
-5.09318450384e-04
-4.11977111885e-05
1.79756864706e-05
-4.92953380224e-04
-6.00591837822e-05
-2.79878932190e-07
-5.02329676709e-04
-1.88958397381e-05
5.16679759387e-05
-5.19463449561e-04
-3.38391115064e-05
3.07891952440e-05
-5.19184987915e-04
-2.25561599136e-05
6.35860644329e-05
-5.57277209762e-04
-1.28336467364e-04
5.85117242313e-05
-7.31416711714e-04
-1.41985887141e-04
5.46115304214e-05
-7.39730643488e-04
-1.22652241887e-04
4.20451160102e-05
-7.01431752109e-04
-1.30975058675e-04
2.36847602174e-05
-6.78685544560e-04
-1.45567468059e-04
1.49775554193e-05
-6.74151991417e-04
-4.00660667663e-05
8.05409691662e-05
-6.30795682816e-04
-4.91266205097e-05
5.58631646029e-05
-6.08991185218e-04
-4.18833618905e-05
4.68120173832e-05
-5.75985942572e-04
-7.66478643962e-05
1.10363875526e-04
-7.39838208979e-04
-9.27823035926e-05
8.59861179995e-05
-7.30619314714e-04
-1.02408668077e-04
9.65798623068e-05
-7.55116413474e-04
-1.16902247386e-04
-1.82806059879e-05
-5.75981211211e-04
-1.01109263329e-04
-6.31255371611e-06
-5.78685458769e-04
-8.94744034356e-05
-9.31731967483e-06
-5.45045985299e-04
-4.87444330275e-05
2.89820865557e-05
-5.53381748197e-04
-7.23879908606e-05
9.14923516688e-07
-5.39054223936e-04
-6.56161715092e-05
1.59575294572e-05
-5.63029359207e-04
-6.35982309059e-05
1.10976686210e-04
-7.18618210216e-04
-6.23389375815e-05
8.61457767394e-05
-6.81354554813e-04
-4.54152137666e-05
9.76579187368e-05
-6.65550261532e-04
-1.15887222248e-04
8.29544900034e-05
-7.54998721844e-04
-1.29209259687e-04
-1.41197931681e-05
-5.99156339758e-04
-1.29293049708e-04
-9.61197874964e-07
-6.28498846834e-04
-1.43696231121e-04
1.63758206764e-06
-6.43423478221e-04
-7.33781153358e-05
5.66759361081e-05
-6.55441100930e-04
-9.20961134172e-05
4.35082657782e-05
-6.64999838186e-04
-1.00621099926e-04
5.61882339366e-05
-6.97928875282e-04
-6.56538588872e-05
4.29677390453e-05
-6.18619110883e-04
-1.02652329971e-04
2.00680911522e-05
-6.36891067968e-04
-9.36877822940e-05
1.10528223095e-05
-6.05622180991e-04
-7.52167522344e-05
2.27436194771e-05
-5.96830911006e-04
-1.19297377258e-04
1.30160790495e-05
-6.46474636702e-04
-1.30656324247e-05
2.19150506200e-04
-5.79150183143e-04
-1.74468430007e-05
1.84410747372e-04
-5.09561251164e-04
-2.39464266712e-05
2.13782293683e-04
-5.35178342683e-04
-2.66889735068e-05
2.38099866895e-04
-6.25052248830e-04
-2.54084577154e-05
2.47345303590e-04
-5.92464310542e-04
-4.22860888426e-05
2.53385144805e-04
-6.75583883746e-04
-3.92083254842e-05
2.54810415501e-04
-6.31607775334e-04
-7.01027595539e-05
2.66076000141e-04
-6.89665374932e-04
-5.75731105986e-05
2.72261750625e-04
-6.60019585798e-04
-9.92325687410e-05
2.63702927574e-04
-6.87117777853e-04
-8.63583421124e-05
2.77374714905e-04
-6.69723882091e-04
-1.30690609984e-04
2.36956180957e-04
-6.62326971903e-04
-1.15400793955e-04
2.63612708909e-04
-6.51927826263e-04
-1.61039333437e-04
2.22385934511e-04
-6.36731123745e-04
-1.44347628940e-04
2.44426308673e-04
-6.35580460549e-04
-1.67467509674e-04
2.00242860390e-04
-5.82376164679e-04
-1.52257988458e-04
2.21358647145e-04
-5.95145608048e-04
-1.80630045320e-04
1.64809937553e-04
-5.34010182039e-04
-1.66680973355e-04
1.98852465430e-04
-5.48502216709e-04
-1.68512043576e-04
1.30867052733e-04
-4.82523272800e-04
-1.64702996856e-04
1.66801481039e-04
-5.00119582379e-04
-1.49836231991e-04
1.03045889146e-04
-4.28435358460e-04
-1.50395592717e-04
1.36928446834e-04
-4.46329590414e-04
-1.15785033421e-04
1.10412567416e-04
-4.00089967243e-04
-1.27590373881e-04
1.29650782869e-04
-3.98732945214e-04
-8.28574033201e-05
9.62620366264e-05
-3.91212969619e-04
-9.88700991958e-05
1.27588252059e-04
-3.93622206541e-04
-5.28257958315e-05
1.28941933434e-04
-4.13570919606e-04
-7.20883927918e-05
1.32765518353e-04
-4.00856950163e-04
-2.91458584278e-05
1.60584458547e-04
-4.49875692832e-04
-4.81733619120e-05
1.60736292137e-04
-4.24464576930e-04
-3.34297446486e-05
1.81830446884e-04
-4.68827287828e-04
-1.23758186138e-04
2.66131684377e-04
-5.84441247792e-04
-1.36567849538e-04
2.49352008944e-04
-5.92706074324e-04
-1.21359473109e-04
2.57245557495e-04
-5.50403752548e-04
-1.32415913547e-04
2.37636907052e-04
-5.26942374044e-04
-1.48504686376e-04
2.16505698317e-04
-5.25064577198e-04
-4.13818424398e-05
2.37795527550e-04
-5.24050489218e-04
-5.42141420727e-05
2.35293501542e-04
-4.92290309151e-04
-5.09815037349e-05
2.06886660129e-04
-4.62359021448e-04
-6.70010012634e-05
2.74688154077e-04
-6.06315604429e-04
-8.63443614873e-05
2.72278217240e-04
-5.88593079924e-04
-9.50935489321e-05
2.74110907863e-04
-6.18917973506e-04
-1.20021640538e-04
1.79359318077e-04
-4.20886425003e-04
-1.06345650711e-04
1.90024110821e-04
-4.27296180978e-04
-9.66980970259e-05
1.63117377748e-04
-4.06164012288e-04
-5.70740484319e-05
1.85367758500e-04
-4.36826169147e-04
-8.10644110299e-05
1.63251413926e-04
-4.10674145248e-04
-7.33703815025e-05
1.87756859746e-04
-4.35218011425e-04
-5.58551080986e-05
2.69657359888e-04
-5.91929050502e-04
-5.64071318512e-05
2.62388906143e-04
-5.55016043700e-04
-4.07981490459e-05
2.55666720996e-04
-5.56673111082e-04
-1.10664602014e-04
2.69019068902e-04
-6.09564701489e-04
-1.32602326462e-04
1.83424522503e-04
-4.44214013733e-04
-1.32328427646e-04
2.01307412860e-04
-4.67957984391e-04
-1.49785227314e-04
1.95084268397e-04
-4.90824581395e-04
-7.06933437603e-05
2.56070080334e-04
-5.24466854176e-04
-9.04660641995e-05
2.54338986070e-04
-5.18687235478e-04
-9.86405628984e-05
2.66265906174e-04
-5.50994848161e-04
-6.89535318444e-05
2.36855637998e-04
-4.93369622071e-04
-1.05175154531e-04
2.33018241262e-04
-4.85332976381e-04
-9.71289136159e-05
2.14024070379e-04
-4.59529243176e-04
-8.02433688866e-05
2.16232210795e-04
-4.62717210788e-04
-1.22321473857e-04
2.27095109143e-04
-4.87569749020e-04
1.27101070373e-05
6.26049645555e-06
-7.06949413194e-04
1.30243566717e-05
-2.11770712119e-05
-6.57231428220e-04
3.95805319933e-06
-1.89547952781e-05
-6.90385425377e-04
3.61558652250e-06
3.37456657236e-05
-7.48696530477e-04