<?xml version="1.0"?>
<VTKFile type="UnstructuredGrid" version="0.1" byte_order="LittleEndian">
<!--This file was created by meshio v5.3.5-->
<UnstructuredGrid>
<Piece NumberOfPoints="164" NumberOfCells="256">
<Points>
<DataArray type="Float64" Name="Points" NumberOfComponents="3" format="ascii">
-3.62777204087e+01
5.93338573254e+02
-3.00000000000e+03
-8.19500009019e+01
7.40929074508e+02
-2.82410848990e+03
-2.12013651697e+02
8.66050259858e+02
-2.67499486775e+03
-4.06667660990e+02
9.49653563059e+02
-2.57536033081e+03
-6.36277720409e+02
9.79011139066e+02
-2.54037333413e+03
-8.65887779828e+02
9.49653563059e+02
-2.57536033081e+03
-1.06054178912e+03
8.66050259858e+02
-2.67499486775e+03
-1.19060543992e+03
7.40929074508e+02
-2.82410848990e+03
-1.23627772041e+03
5.93338573254e+02
-3.00000000000e+03
-1.19060543992e+03
4.45748072000e+02
-3.17589151010e+03
-1.06054178912e+03
3.20626886651e+02
-3.32500513225e+03
-8.65887779828e+02
2.37023583450e+02
-3.42463966919e+03
-6.36277720409e+02
2.07666007442e+02
-3.45962666587e+03
-4.06667660990e+02
2.37023583450e+02
-3.42463966919e+03
-2.12013651697e+02
3.20626886651e+02
-3.32500513225e+03
-8.19500009019e+01
4.45748072000e+02
-3.17589151010e+03
-9.82301878795e+02
6.57836979237e+02
-2.92313379295e+03
-2.35388105079e+02
5.41264947208e+02
-3.06205893092e+03
-5.69871316028e+02
8.40374504474e+02
-2.70559404147e+03
-7.11529394962e+02
3.50161918889e+02
-3.28980665147e+03
-4.01907468113e+02
3.68697219987e+02
-3.26771713980e+03
-3.01147993968e+02
7.32392613644e+02
-2.83428184780e+03
-8.72831799617e+02
8.02387168171e+02
-2.75086558598e+03
-9.56998297522e+02
4.55590063739e+02
-3.16416228109e+03
-3.83495241035e+02
8.36515227620e+02
-2.71019334853e+03
-5.24957334276e+02
6.99549662937e+02
-2.87342255230e+03
-3.68806365849e+02
6.08303991849e+02
-2.98216490863e+03
-5.60624169490e+02
5.42627281744e+02
-3.06043536384e+03
-7.57039155452e+02
6.08228297855e+02
-2.98225511721e+03
-7.59403827432e+02
4.72412129709e+02
-3.14411452353e+03
-7.22504460330e+02
7.28377464595e+02
-2.83906691610e+03
-2.64377961448e+02
4.33055503539e+02
-3.19101792417e+03
-8.89060199783e+02
3.50161918889e+02
-3.28980665147e+03
-7.33474615242e+02
8.59960767873e+02
-2.68225204170e+03
-1.02657022686e+03
7.66800870444e+02
-2.79327568415e+03
-1.06255581105e+03
5.40549452857e+02
-3.06291162388e+03
-1.90023907337e+02
6.50395874092e+02
-2.93200175674e+03
-5.47512317998e+02
3.06492151437e+02
-3.34185025372e+03
-5.83826678727e+02
4.23842427026e+02
-3.20199764120e+03
-9.03659794049e+02
5.46923384679e+02
-3.05531546774e+03
-4.02488458118e+02
4.86298561892e+02
-3.12756531809e+03
-3.62777204087e+01
5.93338573254e+02
-3.00000000000e+03
-8.19500009019e+01
7.40929074508e+02
-2.82410848990e+03
-2.12013651697e+02
8.66050259858e+02
-2.67499486775e+03
-4.06667660990e+02
9.49653563059e+02
-2.57536033081e+03
-6.36277720409e+02
9.79011139066e+02
-2.54037333413e+03
-8.65887779828e+02
9.49653563059e+02
-2.57536033081e+03
-1.06054178912e+03
8.66050259858e+02
-2.67499486775e+03
-1.19060543992e+03
7.40929074508e+02
-2.82410848990e+03
-1.23627772041e+03
5.93338573254e+02
-3.00000000000e+03
-1.19060543992e+03
4.45748072000e+02
-3.17589151010e+03
-1.06054178912e+03
3.20626886651e+02
-3.32500513225e+03
-8.65887779828e+02
2.37023583450e+02
-3.42463966919e+03
-6.36277720409e+02
2.07666007442e+02
-3.45962666587e+03
-4.06667660990e+02
2.37023583450e+02
-3.42463966919e+03
-2.12013651697e+02
3.20626886651e+02
-3.32500513225e+03
-8.19500009019e+01
4.45748072000e+02
-3.17589151010e+03
-9.82301878795e+02
6.57836979237e+02
-2.92313379295e+03
-2.35388105079e+02
5.41264947208e+02
-3.06205893092e+03
-5.69871316028e+02
8.40374504474e+02
-2.70559404147e+03
-7.11529394962e+02
3.50161918889e+02
-3.28980665147e+03
-4.01907468113e+02
3.68697219987e+02
-3.26771713980e+03
-3.01147993968e+02
7.32392613644e+02
-2.83428184780e+03
-8.72831799617e+02
8.02387168171e+02
-2.75086558598e+03
-9.56998297522e+02
4.55590063739e+02
-3.16416228109e+03
-3.83495241035e+02
8.36515227620e+02
-2.71019334853e+03
-5.24957334276e+02
6.99549662937e+02
-2.87342255230e+03
-3.68806365849e+02
6.08303991849e+02
-2.98216490863e+03
-5.60624169490e+02
5.42627281744e+02
-3.06043536384e+03
-7.57039155452e+02
6.08228297855e+02
-2.98225511721e+03
-7.59403827432e+02
4.72412129709e+02
-3.14411452353e+03
-7.22504460330e+02
7.28377464595e+02
-2.83906691610e+03
-2.64377961448e+02
4.33055503539e+02
-3.19101792417e+03
-8.89060199783e+02
3.50161918889e+02
-3.28980665147e+03
-7.33474615242e+02
8.59960767873e+02
-2.68225204170e+03
-1.02657022686e+03
7.66800870444e+02
-2.79327568415e+03
-1.06255581105e+03
5.40549452857e+02
-3.06291162388e+03
-1.90023907337e+02
6.50395874092e+02
-2.93200175674e+03
-5.47512317998e+02
3.06492151437e+02
-3.34185025372e+03
-5.83826678727e+02
4.23842427026e+02
-3.20199764120e+03
-9.03659794049e+02
5.46923384679e+02
-3.05531546774e+03
-4.02488458118e+02
4.86298561892e+02
-3.12756531809e+03
1.39247167980e+02
4.29658966839e+02
-3.00000000000e+03
9.35748874867e+01
5.77249468093e+02
-2.82410848990e+03
-3.64887633081e+01
7.02370653443e+02
-2.67499486775e+03
-2.31142772601e+02
7.85973956644e+02
-2.57536033081e+03
-4.60752832020e+02
8.15331532651e+02
-2.54037333413e+03
-6.90362891439e+02
7.85973956644e+02
-2.57536033081e+03
-8.85016900732e+02
7.02370653443e+02
-2.67499486775e+03
-1.01508055153e+03
5.77249468093e+02
-2.82410848990e+03
-1.06075283202e+03
4.29658966839e+02
-3.00000000000e+03
-1.01508055153e+03
2.82068465585e+02
-3.17589151010e+03
-8.85016900732e+02
1.56947280236e+02
-3.32500513225e+03
-6.90362891439e+02
7.33439770346e+01
-3.42463966919e+03
-4.60752832020e+02
4.39864010275e+01
-3.45962666587e+03
-2.31142772601e+02
7.33439770346e+01
-3.42463966919e+03
-3.64887633081e+01
1.56947280236e+02
-3.32500513225e+03
9.35748874867e+01
2.82068465585e+02
-3.17589151010e+03
-3.85501157466e+02
1.86482312474e+02
-3.28980665147e+03
-5.42147648576e+02
6.95030235725e+02
-2.68374283693e+03
-8.39068547352e+02
3.81288122828e+02
-3.05764612713e+03
-7.08121434506e+01
4.83655900143e+02
-2.93564896075e+03
-7.81473409133e+02
5.67407476355e+02
-2.83583771891e+03
-6.34476559427e+02
2.26776986862e+02
-3.24178532851e+03
-2.34565328910e+02
6.48692719502e+02
-2.73896573837e+03
-1.42041358264e+02
2.85161188911e+02
-3.17220574597e+03
-1.44990189488e+01
3.72601666001e+02
-3.06799824326e+03
-2.65198556211e+02
4.05153668847e+02
-3.02920427692e+03
-2.55159122143e+02
5.40647758235e+02
-2.86772870912e+03
-4.63043301905e+02
4.99903277397e+02
-2.91628609053e+03
-5.29764428503e+02
3.64241917225e+02
-3.07796100389e+03
-6.80842827495e+02
4.59203661243e+02
-2.96479000430e+03
-3.76782071951e+02
3.02472868463e+02
-3.15157448967e+03
-8.24371166880e+01
5.92144412527e+02
-2.80635738636e+03
-7.13535311394e+02
6.72835621205e+02
-2.71019334853e+03
-3.74101443840e+02
7.12031896534e+02
-2.66348104659e+03
-9.07006645091e+02
4.86716267677e+02
-2.93200175674e+03
-8.20248311744e+02
2.73234816746e+02
-3.18641904284e+03
-2.26842404126e+02
1.96767464581e+02
-3.27754928450e+03
-5.42773360088e+02
1.32647419350e+02
-3.35396457876e+03
-6.10120761438e+02
5.73350861291e+02
-2.82875466856e+03
-7.00880134904e+02
3.40949100981e+02
-3.10572030134e+03
-4.13189601135e+02
6.11609458114e+02
-2.78315984835e+03
1.39247167980e+02
4.29658966839e+02
-3.00000000000e+03
9.35748874867e+01
5.77249468093e+02
-2.82410848990e+03
-3.64887633081e+01
7.02370653443e+02
-2.67499486775e+03
-2.31142772601e+02
7.85973956644e+02
-2.57536033081e+03
-4.60752832020e+02
8.15331532651e+02
-2.54037333413e+03
-6.90362891439e+02
7.85973956644e+02
-2.57536033081e+03
-8.85016900732e+02
7.02370653443e+02
-2.67499486775e+03
-1.01508055153e+03
5.77249468093e+02
-2.82410848990e+03
-1.06075283202e+03
4.29658966839e+02
-3.00000000000e+03
-1.01508055153e+03
2.82068465585e+02
-3.17589151010e+03
-8.85016900732e+02
1.56947280236e+02
-3.32500513225e+03
-6.90362891439e+02
7.33439770346e+01
-3.42463966919e+03
-4.60752832020e+02
4.39864010275e+01
-3.45962666587e+03
-2.31142772601e+02
7.33439770346e+01
-3.42463966919e+03
-3.64887633081e+01
1.56947280236e+02
-3.32500513225e+03
9.35748874867e+01
2.82068465585e+02
-3.17589151010e+03
-3.85501157466e+02
1.86482312474e+02
-3.28980665147e+03
-5.42147648576e+02
6.95030235725e+02
-2.68374283693e+03
-8.39068547352e+02
3.81288122828e+02
-3.05764612713e+03
-7.08121434506e+01
4.83655900143e+02
-2.93564896075e+03
-7.81473409133e+02
5.67407476355e+02
-2.83583771891e+03
-6.34476559427e+02
2.26776986862e+02
-3.24178532851e+03
-2.34565328910e+02
6.48692719502e+02
-2.73896573837e+03
-1.42041358264e+02
2.85161188911e+02
-3.17220574597e+03
-1.44990189488e+01
3.72601666001e+02
-3.06799824326e+03
-2.65198556211e+02
4.05153668847e+02
-3.02920427692e+03
-2.55159122143e+02
5.40647758235e+02
-2.86772870912e+03
-4.63043301905e+02
4.99903277397e+02
-2.91628609053e+03
-5.29764428503e+02
3.64241917225e+02
-3.07796100389e+03
-6.80842827495e+02
4.59203661243e+02
-2.96479000430e+03
-3.76782071951e+02
3.02472868463e+02
-3.15157448967e+03
-8.24371166880e+01
5.92144412527e+02
-2.80635738636e+03
-7.13535311394e+02
6.72835621205e+02
-2.71019334853e+03
-3.74101443840e+02
7.12031896534e+02
-2.66348104659e+03
-9.07006645091e+02
4.86716267677e+02
-2.93200175674e+03
-8.20248311744e+02
2.73234816746e+02
-3.18641904284e+03
-2.26842404126e+02
1.96767464581e+02
-3.27754928450e+03
-5.42773360088e+02
1.32647419350e+02
-3.35396457876e+03
-6.10120761438e+02
5.73350861291e+02
-2.82875466856e+03
-7.00880134904e+02
3.40949100981e+02
-3.10572030134e+03
-4.13189601135e+02
6.11609458114e+02
-2.78315984835e+03

</DataArray>
</Points>
<Cells>
<DataArray type="Int64" Name="connectivity" format="ascii">
0
1
36
0
15
17
0
17
36
1
2
21
1
21
36
2
3
24
2
21
24
3
4
18
3
18
24
4
5
33
4
18
33
5
6
22
5
22
33
6
7
34
6
22
34
7
8
16
7
16
34
8
9
35
8
16
35
9
10
23
9
23
35
10
11
32
10
23
32
11
12
19
11
19
32
12
13
37
12
19
37
13
14
20
13
20
37
14
15
31
14
20
31
15
17
31
16
22
30
16
22
34
16
28
30
16
28
39
16
35
39
17
26
36
17
26
40
17
31
40
18
24
25
18
25
30
18
30
33
19
29
32
19
29
38
19
37
38
20
31
40
20
37
38
20
38
40
21
24
25
21
25
26
21
26
36
22
30
33
23
29
32
23
29
39
23
35
39
25
26
27
25
27
28
25
28
30
26
27
40
27
28
29
27
29
38
27
38
40
28
29
39
41
42
77
41
56
58
41
58
77
42
43
62
42
62
77
43
44
65
43
62
65
44
45
59
44
59
65
45
46
74
45
59
74
46
47
63
46
63
74
47
48
75
47
63
75
48
49
57
48
57
75
49
50
76
49
57
76
50
51
64
50
64
76
51
52
73
51
64
73
52
53
60
52
60
73
53
54
78
53
60
78
54
55
61
54
61
78
55
56
72
55
61
72
56
58
72
57
63
71
57
63
75
57
69
71
57
69
80
57
76
80
58
67
77
58
67
81
58
72
81
59
65
66
59
66
71
59
71
74
60
70
73
60
70
79
60
78
79
61
72
81
61
78
79
61
79
81
62
65
66
62
66
67
62
67
77
63
71
74
64
70
73
64
70
80
64
76
80
66
67
68
66
68
69
66
69
71
67
68
81
68
69
70
68
70
79
68
79
81
69
70
80
82
83
101
82
97
106
82
101
106
83
84
113
83
101
113
84
85
104
84
104
113
85
86
115
85
104
115
86
87
99
86
99
115
87
88
114
87
99
114
88
89
102
88
102
114
89
90
116
89
102
116
90
91
100
90
100
116
91
92
117
91
100
117
92
93
103
92
103
117
93
94
119
93
103
119
94
95
98
94
98
119
95
96
118
95
98
118
96
97
105
96
105
118
97
105
106
98
103
112
98
103
119
98
112
118
99
114
120
99
115
122
99
120
122
100
111
116
100
111
121
100
117
121
101
106
107
101
107
108
101
108
113
102
111
116
102
111
120
102
114
120
103
110
112
103
110
121
103
117
121
104
108
113
104
108
122
104
115
122
105
106
107
105
107
112
105
112
118
107
108
109
107
109
110
107
110
112
108
109
122
109
110
111
109
111
120
109
120
122
110
111
121
123
124
142
123
138
147
123
142
147
124
125
154
124
142
154
125
126
145
125
145
154
126
127
156
126
145
156
127
128
140
127
140
156
128
129
155
128
140
155
129
130
143
129
143
155
130
131
157
130
143
157
131
132
141
131
141
157
132
133
158
132
141
158
133
134
144
133
144
158
134
135
160
134
144
160
135
136
139
135
139
160
136
137
159
136
139
159
137
138
146
137
146
159
138
146
147
139
144
153
139
144
160
139
153
159
140
155
161
140
156
163
140
161
163
141
152
157
141
152
162
141
158
162
142
147
148
142
148
149
142
149
154
143
152
157
143
152
161
143
155
161
144
151
153
144
151
162
144
158
162
145
149
154
145
149
163
145
156
163
146
147
148
146
148
153
146
153
159
148
149
150
148
150
151
148
151
153
149
150
163
150
151
152
150
152
161
150
161
163
151
152
162

</DataArray>
<DataArray type="Int64" Name="offsets" format="ascii">
3
6
9
12
15
18
21
24
27
30
33
36
39
42
45
48
51
54
57
60
63
66
69
72
75
78
81
84
87
90
93
96
99
102
105
108
111
114
117
120
123
126
129
132
135
138
141
144
147
150
153
156
159
162
165
168
171
174
177
180
183
186
189
192
195
198
201
204
207
210
213
216
219
222
225
228
231
234
237
240
243
246
249
252
255
258
261
264
267
270
273
276
279
282
285
288
291
294
297
300
303
306
309
312
315
318
321
324
327
330
333
336
339
342
345
348
351
354
357
360
363
366
369
372
375
378
381
384
387
390
393
396
399
402
405
408
411
414
417
420
423
426
429
432
435
438
441
444
447
450
453
456
459
462
465
468
471
474
477
480
483
486
489
492
495
498
501
504
507
510
513
516
519
522
525
528
531
534
537
540
543
546
549
552
555
558
561
564
567
570
573
576
579
582
585
588
591
594
597
600
603
606
609
612
615
618
621
624
627
630
633
636
639
642
645
648
651
654
657
660
663
666
669
672
675
678
681
684
687
690
693
696
699
702
705
708
711
714
717
720
723
726
729
732
735
738
741
744
747
750
753
756
759
762
765
768

</DataArray>
<DataArray type="Int64" Name="types" format="ascii">
5
5
5
5
5
5
5
5
5
5
5
5
5
5
5
5
5
5
5
5
5
5
5
5
5
5
5
5
5
5
5
5
5
5
5
5
5
5
5
5
5
5
5
5
5
5
5
5
5
5
5
5
5
5
5
5
5
5
5
5
5
5
5
5
5
5
5
5
5
5
5
5
5
5
5
5
5
5
5
5
5
5
5
5
5
5
5
5
5
5
5
5
5
5
5
5
5
5
5
5
5
5
5
5
5
5
5
5
5
5
5
5
5
5
5
5
5
5
5
5
5
5
5
5
5
5
5
5
5
5
5
5
5
5
5
5
5
5
5
5
5
5
5
5
5
5
5
5
5
5
5
5
5
5
5
5
5
5
5
5
5
5
5
5
5
5
5
5
5
5
5
5
5
5
5
5
5
5
5
5
5
5
5
5
5
5
5
5
5
5
5
5
5
5
5
5
5
5
5
5
5
5
5
5
5
5
5
5
5
5
5
5
5
5
5
5
5
5
5
5
5
5
5
5
5
5
5
5
5
5
5
5
5
5
5
5
5
5
5
5
5
5
5
5
5
5
5
5
5
5
5
5
5
5
5
5

</DataArray>
</Cells>
<PointData>
<DataArray type="Int64" Name="node_id" format="ascii">
0
1
2
3
4
5
6
7
8
9
10
11
12
13
14
15
16
17
18
19
20
21
22
23
24
25
26
27
28
29
30
31
32
33
34
35
36
37
38
39
40
41
42
43
44
45
46
47
48
49
50
51
52
53
54
55
56
57
58
59
60
61
62
63
64
65
66
67
68
69
70
71
72
73
74
75
76
77
78
79
80
81
0
1
2
3
4
5
6
7
8
9
10
11
12
13
14
15
16
17
18
19
20
21
22
23
24
25
26
27
28
29
30
31
32
33
34
35
36
37
38
39
40
41
42
43
44
45
46
47
48
49
50
51
52
53
54
55
56
57
58
59
60
61
62
63
64
65
66
67
68
69
70
71
72
73
74
75
76
77
78
79
80
81

</DataArray>
</PointData>
<CellData>
<DataArray type="Int64" Name="cell_id" format="ascii">
0
1
2
3
4
5
6
7
8
9
10
11
12
13
14
15
16
17
18
19
20
21
22
23
24
25
26
27
28
29
30
31
32
33
34
35
36
37
38
39
40
41
42
43
44
45
46
47
48
49
50
51
52
53
54
55
56
57
58
59
60
61
62
63
64
65
66
67
68
69
70
71
72
73
74
75
76
77
78
79
80
81
82
83
84
85
86
87
88
89
90
91
92
93
94
95
96
97
98
99
100
101
102
103
104
105
106
107
108
109
110
111
112
113
114
115
116
117
118
119
120
121
122
123
124
125
126
127
0
1
2
3
4
5
6
7
8
9
10
11
12
13
14
15
16
17
18
19
20
21
22
23
24
25
26
27
28
29
30
31
32
33
34
35
36
37
38
39
40
41
42
43
44
45
46
47
48
49
50
51
52
53
54
55
56
57
58
59
60
61
62
63
64
65
66
67
68
69
70
71
72
73
74
75
76
77
78
79
80
81
82
83
84
85
86
87
88
89
90
91
92
93
94
95
96
97
98
99
100
101
102
103
104
105
106
107
108
109
110
111
112
113
114
115
116
117
118
119
120
121
122
123
124
125
126
127

</DataArray>
<DataArray type="Int64" Name="grid_dim" format="ascii">
2
2
2
2
2
2
2
2
2
2
2
2
2
2
2
2
2
2
2
2
2
2
2
2
2
2
2
2
2
2
2
2
2
2
2
2
2
2
2
2
2
2
2
2
2
2
2
2
2
2
2
2
2
2
2
2
2
2
2
2
2
2
2
2
2
2
2
2
2
2
2
2
2
2
2
2
2
2
2
2
2
2
2
2
2
2
2
2
2
2
2
2
2
2
2
2
2
2
2
2
2
2
2
2
2
2
2
2
2
2
2
2
2
2
2
2
2
2
2
2
2
2
2
2
2
2
2
2
2
2
2
2
2
2
2
2
2
2
2
2
2
2
2
2
2
2
2
2
2
2
2
2
2
2
2
2
2
2
2
2
2
2
2
2
2
2
2
2
2
2
2
2
2
2
2
2
2
2
2
2
2
2
2
2
2
2
2
2
2
2
2
2
2
2
2
2
2
2
2
2
2
2
2
2
2
2
2
2
2
2
2
2
2
2
2
2
2
2
2
2
2
2
2
2
2
2
2
2
2
2
2
2
2
2
2
2
2
2
2
2
2
2
2
2
2
2
2
2
2
2
2
2
2
2
2
2

</DataArray>
<DataArray type="Float64" Name="interface_darcy_flux" format="ascii">
1.50142391748e-11
1.85441164526e-11
1.35831584294e-11
2.14412872934e-11
1.36964821499e-11
1.32547747834e-11
1.51511115793e-11
2.12949275252e-11
1.54819300412e-11
1.62992989632e-11
1.60724705732e-11
1.61858332006e-11
1.27696004289e-11
7.32660356018e-12
1.04649264728e-11
2.08582633370e-11
1.31246372169e-11
1.44505063001e-11
1.57699140546e-11
2.20353253669e-11
1.45937005737e-11
1.38544926840e-11
1.50187974943e-11
2.07368694824e-11
1.46325460175e-11
1.49582192794e-11
1.52430829889e-11
1.84238572873e-11
1.32701383786e-11
1.49343822404e-11
1.33265198793e-11
1.36393941327e-11
2.10340082173e-11
1.23731418950e-11
2.31158952384e-11
1.59868760558e-11
1.33578177041e-11
1.30175231061e-11
1.27478330076e-11
1.23430490275e-11
1.95858128757e-11
1.91922024972e-11
1.57582794109e-11
1.65719278971e-11
1.47364694590e-11
1.28920718674e-11
1.20862903313e-11
1.22035383610e-11
1.56300191063e-11
1.92309349686e-11
1.92388988218e-11
1.44045579552e-11
1.40467375096e-11
1.57769336295e-11
1.30183300820e-11
9.83642788419e-12
2.12058443706e-11
2.40044748998e-11
1.84974688016e-11
1.52397802302e-11
2.13505745480e-11
1.58504188134e-11
1.51965869181e-11
1.36492635048e-11
-5.15115457874e-12
-7.01757391126e-12
-5.11082460740e-12
-5.73790006116e-12
-4.34763090103e-12
-4.39958025456e-12
-4.33297829992e-12
-8.99606616391e-12
-5.67608971875e-12
-7.27848052535e-12
-6.61885028636e-12
-7.04202302634e-12
-5.34300371436e-12
-4.94441557946e-12
-4.58554065956e-12
-8.93941223555e-12
-5.21042106543e-12
-7.30611177449e-12
-6.74172706231e-12
-1.11052964126e-11
-7.24857915218e-12
-6.25640778975e-12
-7.17151250642e-12
-7.74117860092e-12
-3.84708474392e-12
-5.93255344305e-12
-5.67146920361e-12
-6.54948019436e-12
-5.34944429889e-12
-4.13966226859e-12
-3.72930198520e-12
-4.62472545494e-12
-6.99476542355e-12
-4.64154479370e-12
-7.40731074533e-12
-5.93843487762e-12
-5.18033730751e-12
-4.47097055702e-12
-5.05548955707e-12
-4.38474082346e-12
-6.72580218840e-12
-6.88493142550e-12
-6.36336544662e-12
-4.38265457712e-12
-5.20693824101e-12
-4.71997702061e-12
-4.60938538010e-12
-5.56679507913e-12
-6.78469798580e-12
-5.32176081970e-12
-5.45814669723e-12
-4.52585633706e-12
-4.72742601376e-12
-6.80151857140e-12
-4.33317590619e-12
-3.89425429192e-12
-7.78498395184e-12
-7.89489331466e-12
-5.87697958866e-12
-6.70159277173e-12
-7.47643560235e-12
-6.91328084772e-12
-6.53250061767e-12
-4.90663148803e-12
7.86068599603e-12
3.87297191206e-12
5.80325193348e-12
4.77395768237e-12
5.53544081141e-12
8.53210605030e-12
5.54403041851e-12
6.63981939375e-12
6.27943903513e-12
6.27698125700e-12
5.18374993336e-12
7.62212784863e-12
6.13248881304e-12
1.20346521578e-11
8.10807774247e-12
4.81264376537e-12
6.87544212044e-12
7.72676832922e-12
4.59414792364e-12
6.69257130289e-12
5.76076171142e-12
8.37512491559e-12
6.72584439753e-12
5.89636207779e-12
4.97326962799e-12
1.10757009608e-11
6.64265107227e-12
7.45511611091e-12
6.94596783043e-12
6.70964537671e-12
4.98831712535e-12
4.66884520571e-12
8.21076290865e-12
6.45560777719e-12
5.65260014045e-12
6.18603864146e-12
5.12096955240e-12
7.51807240452e-12
5.69954987843e-12
4.90518829148e-12
3.62096262981e-12
8.63306053380e-12
8.66347832473e-12
6.38228845034e-12
6.92255828608e-12
6.00073744389e-12
6.51802784410e-12
7.07469598185e-12
5.91438240368e-12
4.51814698528e-12
5.13501268777e-12
5.70079782588e-12
5.03147302798e-12
7.71267083774e-12
7.15083178265e-12
5.74976679248e-12
8.97280788300e-12
9.47981204463e-12
5.86856607362e-12
7.31623058533e-12
7.45375444283e-12
7.53372813580e-12
7.30510743600e-12
5.78184598768e-12
-1.87293306519e-11
-6.29344716852e-12
-1.24720850439e-11
-1.42421025809e-11
-1.31639295047e-11
-1.80236398447e-11
-1.47495254702e-11
-1.60325915976e-11
-1.31617526316e-11
-1.95803990046e-11
-1.33020171893e-11
-1.42326577672e-11
-1.34544582170e-11
-2.01183145919e-11
-1.43007270605e-11
-1.34831895321e-11
-1.43355306871e-11
-2.40530520995e-11
-1.55429617123e-11
-1.80612137578e-11
-1.46320733112e-11
-2.36190967555e-11
-1.79184025950e-11
-1.25528336067e-11
-1.43576158649e-11
-2.12137906542e-11
-1.32537875055e-11
-1.36725080136e-11
-1.27102852532e-11
-1.70566579701e-11
-1.38551329311e-11
-1.53023163280e-11
-2.14578027709e-11
-1.48115818710e-11
-1.34799464668e-11
-1.31926162357e-11
-1.05628119704e-11
-1.62704141955e-11
-1.48378375712e-11
-1.31677438923e-11
-1.03127359894e-11
-1.75288365375e-11
-1.99007369624e-11
-1.45303946107e-11
-1.67858837835e-11
-1.35782377465e-11
-1.31056451739e-11
-1.80229266405e-11
-1.63561132735e-11
-1.37887179578e-11
-1.29638937434e-11
-1.38055635336e-11
-1.24233898066e-11
-1.92327953037e-11
-2.07243591169e-11
-1.61288463061e-11
-2.07684776990e-11
-2.49437328884e-11
-1.67393085355e-11
-1.56577843058e-11
-2.11824109720e-11
-1.52184863625e-11
-1.45560102685e-11
-1.35387596147e-11

</DataArray>
<DataArray type="Int64" Name="interface_id" format="ascii">
0
0
0
0
0
0
0
0
0
0
0
0
0
0
0
0
0
0
0
0
0
0
0
0
0
0
0
0
0
0
0
0
0
0
0
0
0
0
0
0
0
0
0
0
0
0
0
0
0
0
0
0
0
0
0
0
0
0
0
0
0
0
0
0
0
0
0
0
0
0
0
0
0
0
0
0
0
0
0
0
0
0
0
0
0
0
0
0
0
0
0
0
0
0
0
0
0
0
0
0
0
0
0
0
0
0
0
0
0
0
0
0
0
0
0
0
0
0
0
0
0
0
0
0
0
0
0
0
1
1
1
1
1
1
1
1
1
1
1
1
1
1
1
1
1
1
1
1
1
1
1
1
1
1
1
1
1
1
1
1
1
1
1
1
1
1
1
1
1
1
1
1
1
1
1
1
1
1
1
1
1
1
1
1
1
1
1
1
1
1
1
1
1
1
1
1
1
1
1
1
1
1
1
1
1
1
1
1
1
1
1
1
1
1
1
1
1
1
1
1
1
1
1
1
1
1
1
1
1
1
1
1
1
1
1
1
1
1
1
1
1
1
1
1
1
1
1
1
1
1
1
1
1
1
1
1

</DataArray>
<DataArray type="Int64" Name="is_mortar" format="ascii">
1
1
1
1
1
1
1
1
1
1
1
1
1
1
1
1
1
1
1
1
1
1
1
1
1
1
1
1
1
1
1
1
1
1
1
1
1
1
1
1
1
1
1
1
1
1
1
1
1
1
1
1
1
1
1
1
1
1
1
1
1
1
1
1
1
1
1
1
1
1
1
1
1
1
1
1
1
1
1
1
1
1
1
1
1
1
1
1
1
1
1
1
1
1
1
1
1
1
1
1
1
1
1
1
1
1
1
1
1
1
1
1
1
1
1
1
1
1
1
1
1
1
1
1
1
1
1
1
1
1
1
1
1
1
1
1
1
1
1
1
1
1
1
1
1
1
1
1
1
1
1
1
1
1
1
1
1
1
1
1
1
1
1
1
1
1
1
1
1
1
1
1
1
1
1
1
1
1
1
1
1
1
1
1
1
1
1
1
1
1
1
1
1
1
1
1
1
1
1
1
1
1
1
1
1
1
1
1
1
1
1
1
1
1
1
1
1
1
1
1
1
1
1
1
1
1
1
1
1
1
1
1
1
1
1
1
1
1
1
1
1
1
1
1
1
1
1
1
1
1
1
1
1
1
1
1

</DataArray>
<DataArray type="Int64" Name="mortar_side" format="ascii">
1
1
1
1
1
1
1
1
1
1
1
1
1
1
1
1
1
1
1
1
1
1
1
1
1
1
1
1
1
1
1
1
1
1
1
1
1
1
1
1
1
1
1
1
1
1
1
1
1
1
1
1
1
1
1
1
1
1
1
1
1
1
1
1
2
2
2
2
2
2
2
2
2
2
2
2
2
2
2
2
2
2
2
2
2
2
2
2
2
2
2
2
2
2
2
2
2
2
2
2
2
2
2
2
2
2
2
2
2
2
2
2
2
2
2
2
2
2
2
2
2
2
2
2
2
2
2
2
1
1
1
1
1
1
1
1
1
1
1
1
1
1
1
1
1
1
1
1
1
1
1
1
1
1
1
1
1
1
1
1
1
1
1
1
1
1
1
1
1
1
1
1
1
1
1
1
1
1
1
1
1
1
1
1
1
1
1
1
1
1
1
1
2
2
2
2
2
2
2
2
2
2
2
2
2
2
2
2
2
2
2
2
2
2
2
2
2
2
2
2
2
2
2
2
2
2
2
2
2
2
2
2
2
2
2
2
2
2
2
2
2
2
2
2
2
2
2
2
2
2
2
2
2
2
2
2

</DataArray>
<DataArray type="Float64" Name="u_interface" NumberOfComponents="3" format="ascii">
-1.49891732038e-05
1.28258821502e-04
-6.46486955282e-04
-1.45830637411e-05
9.74417955204e-05
-5.83939625184e-04
-2.10435504586e-05
1.08230860562e-04
-6.20383162350e-04
-2.75360459329e-05
1.44064964232e-04
-6.98606902364e-04
-2.99135779772e-05
1.31683953768e-04
-6.75776793251e-04
-4.57980273193e-05
1.51984630751e-04
-7.51289089121e-04
-4.25614445091e-05
1.42017479462e-04
-7.20291532242e-04
-7.30042298597e-05
1.38389840355e-04
-7.80552157626e-04
-6.42417566055e-05
1.41500196065e-04
-7.61836390805e-04
-9.84027390008e-05
1.20472816057e-04
-7.86782632191e-04
-8.88823076793e-05
1.27316524364e-04
-7.81487730476e-04
-1.22625936213e-04
9.86066482258e-05
-7.72189514168e-04
-1.11105401648e-04
1.05052193524e-04
-7.79288867721e-04
-1.43501517243e-04
8.24521867795e-05
-7.45671051003e-04
-1.30585769981e-04
8.46304604068e-05
-7.63305532036e-04
-1.55119188023e-04
5.30089858071e-05
-7.06185285829e-04
-1.46191294506e-04
6.53384892020e-05
-7.27921848952e-04
-1.61645671669e-04
2.92958368068e-05
-6.53835305455e-04
-1.50579330917e-04
3.81461431869e-05
-6.87495596278e-04
-1.50608735115e-04
9.24522035022e-06
-5.97601335059e-04
-1.48842913817e-04
1.75318287541e-05
-6.34206890712e-04
-1.32559080196e-04
-6.63255564533e-06
-5.35580371721e-04
-1.36563126860e-04
-6.38810344211e-07
-5.77589644002e-04
-1.02130043432e-04
9.65627609695e-07
-5.03315284094e-04
-1.14538593972e-04
-5.17755398644e-06
-5.32977038564e-04
-7.07364867078e-05
1.27024530851e-05
-4.78072658893e-04
-8.64539576195e-05
7.06142533568e-06
-5.08810327796e-04
-4.40126126887e-05
3.67073717437e-05
-4.97138879433e-04
-5.97267883593e-05
2.28826029278e-05
-5.04338381853e-04
-2.36603960500e-05
6.65300113138e-05
-5.27153472856e-04
-3.70608715595e-05
5.15382507259e-05
-5.23094803204e-04
-2.58298741259e-05
7.95971387739e-05
-5.61922449025e-04
-1.18829152572e-04
8.01008655485e-05
-7.34682701314e-04
-1.31827685421e-04
7.29933593505e-05
-7.42263951574e-04
-1.13999080568e-04
6.86068859831e-05
-7.04570409387e-04
-1.22346096261e-04
5.08919835220e-05
-6.82309864978e-04
-1.35623693042e-04
3.95326886008e-05
-6.77391659266e-04
-3.78801075707e-05
9.98495625021e-05
-6.33259879370e-04
-4.68824434261e-05
8.19837946056e-05
-6.14769202487e-04
-4.13324516366e-05
7.08313693493e-05
-5.80302262973e-04
-6.99537238905e-05
1.21012398170e-04
-7.30958715226e-04
-8.49535729228e-05
1.04490457017e-04
-7.25515311921e-04
-9.43067785629e-05
1.10204285046e-04
-7.51585106327e-04
-1.10022781670e-04
1.07994504818e-05
-5.74999538270e-04
-9.56761420633e-05
2.39440299512e-05
-5.78093029773e-04
-8.52190723985e-05
1.88645244874e-05
-5.43365848452e-04
-4.83009310483e-05
5.41073637496e-05
-5.55779676305e-04
-6.99481000435e-05
2.87086498868e-05
-5.38276358106e-04
-6.34140614322e-05
4.44967181454e-05
-5.64161220689e-04
-5.78067952305e-05
1.21473789338e-04
-7.09974341510e-04
-5.70823877974e-05
1.06687629200e-04
-6.78720687793e-04
-4.20543359000e-05
1.13047727461e-04
-6.64953171474e-04
-1.07285456401e-04
9.87098317014e-05
-7.52458137660e-04
-1.21301585749e-04
1.38495620270e-05
-5.98518347481e-04
-1.21377309137e-04
2.69048716589e-05
-6.27442144410e-04
-1.34463848317e-04
2.66500018533e-05
-6.44005539078e-04
-6.83395395049e-05
8.56786913744e-05
-6.59261421172e-04
-8.61140955332e-05
7.41473146460e-05
-6.67241171553e-04
-9.33359695716e-05
8.34137888092e-05
-6.99048768989e-04
-6.21737719426e-05
7.32896296195e-05
-6.24153705130e-04
-9.67382480238e-05
5.14799235951e-05
-6.39064103875e-04
-8.87511656650e-05
4.25977562357e-05
-6.06816404296e-04
-7.18218751134e-05
5.34584196252e-05
-5.99684604884e-04
-1.11958975235e-04
4.27987724479e-05
-6.47632504490e-04
-1.54639431514e-05
1.85208503862e-04
-5.90969653961e-04
-1.92238629617e-05
1.55775470487e-04
-5.27091447683e-04
-2.43232625644e-05
1.79011505641e-04
-5.51390145929e-04
-2.73942569750e-05
2.02826859042e-04
-6.41322781093e-04
-2.59317192001e-05
2.06602630305e-04
-6.02752801172e-04
-4.29680402427e-05
2.15722674222e-04
-6.89160245621e-04
-3.96755400694e-05
2.15821917514e-04
-6.48348803817e-04
-6.85241303932e-05
2.24637464632e-04
-6.96485178162e-04
-5.78922692439e-05
2.30097054533e-04
-6.75490401309e-04
-9.32826650675e-05
2.22266555447e-04
-6.90720812210e-04
-8.27540703258e-05
2.33690026740e-04
-6.77807036760e-04
-1.21859533013e-04
2.02791433910e-04
-6.70625072015e-04
-1.08101323997e-04
2.23852523389e-04
-6.63479963941e-04
-1.48644089750e-04
1.91824529405e-04
-6.40444042900e-04
-1.34829542722e-04
2.09184968039e-04
-6.41890600062e-04
-1.55012095174e-04
1.71313764878e-04
-5.90855664856e-04
-1.43002539960e-04
1.89349275423e-04
-6.07033824972e-04
-1.66690519971e-04
1.41803892257e-04
-5.44167972077e-04
-1.54870738034e-04
1.69289552973e-04
-5.59657252405e-04
-1.57036678119e-04
1.13342632929e-04
-4.96141690647e-04
-1.54206241623e-04
1.41675655542e-04
-5.13196680779e-04
-1.40694798647e-04
8.88040934997e-05
-4.42578551073e-04
-1.41835494772e-04
1.16583612985e-04
-4.63327048721e-04
-1.08485730009e-04
9.23366855527e-05
-4.14264212403e-04
-1.20810048348e-04
1.08607036219e-04
-4.22071262581e-04
-7.84680504846e-05
8.30195956089e-05
-4.09566461745e-04
-9.30350877692e-05
1.06086233026e-04
-4.12297748834e-04
-5.18348010480e-05
1.07044202940e-04
-4.28614479716e-04
-6.85601881831e-05
1.10202022258e-04
-4.19259672575e-04
-2.97029152469e-05
1.31136788803e-04
-4.64199766558e-04
-4.57649492201e-05
1.32007169458e-04
-4.44696709697e-04
-3.20554717779e-05
1.51465782177e-04
-4.91888207363e-04
-1.17690373600e-04
2.22699269507e-04
-5.95670847960e-04
-1.29633782616e-04
2.11187176573e-04
-6.07547208516e-04
-1.15223418882e-04
2.14082804286e-04
-5.62753466717e-04
-1.25370959477e-04
1.97316011921e-04
-5.39571273293e-04
-1.39775903584e-04
1.81541863215e-04
-5.38959851081e-04
-3.96671426863e-05
1.96302333612e-04
-5.39234383598e-04
-5.18955200749e-05
1.91693047817e-04
-5.07830429751e-04
-4.85308848846e-05
1.69885053375e-04
-4.83765831314e-04
-6.61287822827e-05
2.30327636218e-04
-6.24399272859e-04
-8.30853925708e-05
2.27691480125e-04
-6.05413994944e-04
-9.08156287386e-05
2.30507726308e-04
-6.34312163167e-04
-1.14235339741e-04
1.47627409653e-04
-4.41619062857e-04
-1.00012903657e-04
1.56142005662e-04
-4.49226732710e-04
-9.06943608310e-05
1.34902668752e-04
-4.30258813555e-04
-5.48021516123e-05
1.52680515705e-04
-4.59706963580e-04
-7.67688642983e-05
1.35017750851e-04
-4.34662685523e-04
-6.97798537605e-05
1.54325582157e-04
-4.57112859637e-04
-5.53403591775e-05
2.25537953991e-04
-6.08530136631e-04
-5.53229287070e-05
2.17877361826e-04
-5.70328574432e-04
-3.97290532931e-05
2.11796101635e-04
-5.68690888733e-04
-1.04939010830e-04
2.27098478966e-04
-6.27300386146e-04
-1.26270213880e-04
1.52097716000e-04
-4.63755844199e-04
-1.25985005487e-04
1.67562488234e-04
-4.90329386317e-04
-1.41113630864e-04
1.63901719618e-04
-5.10221615106e-04
-6.85619528459e-05
2.10528636562e-04
-5.37551248297e-04
-8.68386195567e-05
2.09774935048e-04
-5.35024536976e-04
-9.40657464737e-05
2.20667588728e-04
-5.65246850889e-04
-6.59493537649e-05
1.93320157103e-04
-5.07147687716e-04
-9.98911861180e-05
1.91744246873e-04
-5.02330732375e-04
-9.21702589798e-05
1.75056558697e-04
-4.77693130635e-04
-7.62840052582e-05
1.76311524910e-04
-4.79929164537e-04
-1.16349593015e-04
1.87757800271e-04
-5.06325607434e-04
7.95332169865e-06
1.98529848261e-05
-7.07196260591e-04
1.00844742284e-05
-5.20125330044e-06
-6.52141914265e-04
1.38271453644e-06
-2.00007433723e-06
-6.86192188875e-04
-1.30941211376e-07
4.54762092403e-05
-7.54719621091e-04
-1.82447123753e-06
2.52165961359e-05
-7.37314764703e-04
-2.03930196579e-05