<?xml version="1.0"?>
<VTKFile type="UnstructuredGrid" version="0.1" byte_order="LittleEndian">
<!--This file was created by meshio v5.3.5-->
<UnstructuredGrid>
<Piece NumberOfPoints="164" NumberOfCells="256">
<Points>
<DataArray type="Float64" Name="Points" NumberOfComponents="3" format="ascii">
-3.62777204087e+01
5.93338573254e+02
-3.00000000000e+03
-8.19500009019e+01
7.40929074508e+02
-2.82410848990e+03
-2.12013651697e+02
8.66050259858e+02
-2.67499486775e+03
-4.06667660990e+02
9.49653563059e+02
-2.57536033081e+03
-6.36277720409e+02
9.79011139066e+02
-2.54037333413e+03
-8.65887779828e+02
9.49653563059e+02
-2.57536033081e+03
-1.06054178912e+03
8.66050259858e+02
-2.67499486775e+03
-1.19060543992e+03
7.40929074508e+02
-2.82410848990e+03
-1.23627772041e+03
5.93338573254e+02
-3.00000000000e+03
-1.19060543992e+03
4.45748072000e+02
-3.17589151010e+03
-1.06054178912e+03
3.20626886651e+02
-3.32500513225e+03
-8.65887779828e+02
2.37023583450e+02
-3.42463966919e+03
-6.36277720409e+02
2.07666007442e+02
-3.45962666587e+03
-4.06667660990e+02
2.37023583450e+02
-3.42463966919e+03
-2.12013651697e+02
3.20626886651e+02
-3.32500513225e+03
-8.19500009019e+01
4.45748072000e+02
-3.17589151010e+03
-9.82301878795e+02
6.57836979237e+02
-2.92313379295e+03
-2.35388105079e+02
5.41264947208e+02
-3.06205893092e+03
-5.69871316028e+02
8.40374504474e+02
-2.70559404147e+03
-7.11529394962e+02
3.50161918889e+02
-3.28980665147e+03
-4.01907468113e+02
3.68697219987e+02
-3.26771713980e+03
-3.01147993968e+02
7.32392613644e+02
-2.83428184780e+03
-8.72831799617e+02
8.02387168171e+02
-2.75086558598e+03
-9.56998297522e+02
4.55590063739e+02
-3.16416228109e+03
-3.83495241035e+02
8.36515227620e+02
-2.71019334853e+03
-5.24957334276e+02
6.99549662937e+02
-2.87342255230e+03
-3.68806365849e+02
6.08303991849e+02
-2.98216490863e+03
-5.60624169490e+02
5.42627281744e+02
-3.06043536384e+03
-7.57039155452e+02
6.08228297855e+02
-2.98225511721e+03
-7.59403827432e+02
4.72412129709e+02
-3.14411452353e+03
-7.22504460330e+02
7.28377464595e+02
-2.83906691610e+03
-2.64377961448e+02
4.33055503539e+02
-3.19101792417e+03
-8.89060199783e+02
3.50161918889e+02
-3.28980665147e+03
-7.33474615242e+02
8.59960767873e+02
-2.68225204170e+03
-1.02657022686e+03
7.66800870444e+02
-2.79327568415e+03
-1.06255581105e+03
5.40549452857e+02
-3.06291162388e+03
-1.90023907337e+02
6.50395874092e+02
-2.93200175674e+03
-5.47512317998e+02
3.06492151437e+02
-3.34185025372e+03
-5.83826678727e+02
4.23842427026e+02
-3.20199764120e+03
-9.03659794049e+02
5.46923384679e+02
-3.05531546774e+03
-4.02488458118e+02
4.86298561892e+02
-3.12756531809e+03
-3.62777204087e+01
5.93338573254e+02
-3.00000000000e+03
-8.19500009019e+01
7.40929074508e+02
-2.82410848990e+03
-2.12013651697e+02
8.66050259858e+02
-2.67499486775e+03
-4.06667660990e+02
9.49653563059e+02
-2.57536033081e+03
-6.36277720409e+02
9.79011139066e+02
-2.54037333413e+03
-8.65887779828e+02
9.49653563059e+02
-2.57536033081e+03
-1.06054178912e+03
8.66050259858e+02
-2.67499486775e+03
-1.19060543992e+03
7.40929074508e+02
-2.82410848990e+03
-1.23627772041e+03
5.93338573254e+02
-3.00000000000e+03
-1.19060543992e+03
4.45748072000e+02
-3.17589151010e+03
-1.06054178912e+03
3.20626886651e+02
-3.32500513225e+03
-8.65887779828e+02
2.37023583450e+02
-3.42463966919e+03
-6.36277720409e+02
2.07666007442e+02
-3.45962666587e+03
-4.06667660990e+02
2.37023583450e+02
-3.42463966919e+03
-2.12013651697e+02
3.20626886651e+02
-3.32500513225e+03
-8.19500009019e+01
4.45748072000e+02
-3.17589151010e+03
-9.82301878795e+02
6.57836979237e+02
-2.92313379295e+03
-2.35388105079e+02
5.41264947208e+02
-3.06205893092e+03
-5.69871316028e+02
8.40374504474e+02
-2.70559404147e+03
-7.11529394962e+02
3.50161918889e+02
-3.28980665147e+03
-4.01907468113e+02
3.68697219987e+02
-3.26771713980e+03
-3.01147993968e+02
7.32392613644e+02
-2.83428184780e+03
-8.72831799617e+02
8.02387168171e+02
-2.75086558598e+03
-9.56998297522e+02
4.55590063739e+02
-3.16416228109e+03
-3.83495241035e+02
8.36515227620e+02
-2.71019334853e+03
-5.24957334276e+02
6.99549662937e+02
-2.87342255230e+03
-3.68806365849e+02
6.08303991849e+02
-2.98216490863e+03
-5.60624169490e+02
5.42627281744e+02
-3.06043536384e+03
-7.57039155452e+02
6.08228297855e+02
-2.98225511721e+03
-7.59403827432e+02
4.72412129709e+02
-3.14411452353e+03
-7.22504460330e+02
7.28377464595e+02
-2.83906691610e+03
-2.64377961448e+02
4.33055503539e+02
-3.19101792417e+03
-8.89060199783e+02
3.50161918889e+02
-3.28980665147e+03
-7.33474615242e+02
8.59960767873e+02
-2.68225204170e+03
-1.02657022686e+03
7.66800870444e+02
-2.79327568415e+03
-1.06255581105e+03
5.40549452857e+02
-3.06291162388e+03
-1.90023907337e+02
6.50395874092e+02
-2.93200175674e+03
-5.47512317998e+02
3.06492151437e+02
-3.34185025372e+03
-5.83826678727e+02
4.23842427026e+02
-3.20199764120e+03
-9.03659794049e+02
5.46923384679e+02
-3.05531546774e+03
-4.02488458118e+02
4.86298561892e+02
-3.12756531809e+03
1.39247167980e+02
4.29658966839e+02
-3.00000000000e+03
9.35748874867e+01
5.77249468093e+02
-2.82410848990e+03
-3.64887633081e+01
7.02370653443e+02
-2.67499486775e+03
-2.31142772601e+02
7.85973956644e+02
-2.57536033081e+03
-4.60752832020e+02
8.15331532651e+02
-2.54037333413e+03
-6.90362891439e+02
7.85973956644e+02
-2.57536033081e+03
-8.85016900732e+02
7.02370653443e+02
-2.67499486775e+03
-1.01508055153e+03
5.77249468093e+02
-2.82410848990e+03
-1.06075283202e+03
4.29658966839e+02
-3.00000000000e+03
-1.01508055153e+03
2.82068465585e+02
-3.17589151010e+03
-8.85016900732e+02
1.56947280236e+02
-3.32500513225e+03
-6.90362891439e+02
7.33439770346e+01
-3.42463966919e+03
-4.60752832020e+02
4.39864010275e+01
-3.45962666587e+03
-2.31142772601e+02
7.33439770346e+01
-3.42463966919e+03
-3.64887633081e+01
1.56947280236e+02
-3.32500513225e+03
9.35748874867e+01
2.82068465585e+02
-3.17589151010e+03
-3.85501157466e+02
1.86482312474e+02
-3.28980665147e+03
-5.42147648576e+02
6.95030235725e+02
-2.68374283693e+03
-8.39068547352e+02
3.81288122828e+02
-3.05764612713e+03
-7.08121434506e+01
4.83655900143e+02
-2.93564896075e+03
-7.81473409133e+02
5.67407476355e+02
-2.83583771891e+03
-6.34476559427e+02
2.26776986862e+02
-3.24178532851e+03
-2.34565328910e+02
6.48692719502e+02
-2.73896573837e+03
-1.42041358264e+02
2.85161188911e+02
-3.17220574597e+03
-1.44990189488e+01
3.72601666001e+02
-3.06799824326e+03
-2.65198556211e+02
4.05153668847e+02
-3.02920427692e+03
-2.55159122143e+02
5.40647758235e+02
-2.86772870912e+03
-4.63043301905e+02
4.99903277397e+02
-2.91628609053e+03
-5.29764428503e+02
3.64241917225e+02
-3.07796100389e+03
-6.80842827495e+02
4.59203661243e+02
-2.96479000430e+03
-3.76782071951e+02
3.02472868463e+02
-3.15157448967e+03
-8.24371166880e+01
5.92144412527e+02
-2.80635738636e+03
-7.13535311394e+02
6.72835621205e+02
-2.71019334853e+03
-3.74101443840e+02
7.12031896534e+02
-2.66348104659e+03
-9.07006645091e+02
4.86716267677e+02
-2.93200175674e+03
-8.20248311744e+02
2.73234816746e+02
-3.18641904284e+03
-2.26842404126e+02
1.96767464581e+02
-3.27754928450e+03
-5.42773360088e+02
1.32647419350e+02
-3.35396457876e+03
-6.10120761438e+02
5.73350861291e+02
-2.82875466856e+03
-7.00880134904e+02
3.40949100981e+02
-3.10572030134e+03
-4.13189601135e+02
6.11609458114e+02
-2.78315984835e+03
1.39247167980e+02
4.29658966839e+02
-3.00000000000e+03
9.35748874867e+01
5.77249468093e+02
-2.82410848990e+03
-3.64887633081e+01
7.02370653443e+02
-2.67499486775e+03
-2.31142772601e+02
7.85973956644e+02
-2.57536033081e+03
-4.60752832020e+02
8.15331532651e+02
-2.54037333413e+03
-6.90362891439e+02
7.85973956644e+02
-2.57536033081e+03
-8.85016900732e+02
7.02370653443e+02
-2.67499486775e+03
-1.01508055153e+03
5.77249468093e+02
-2.82410848990e+03
-1.06075283202e+03
4.29658966839e+02
-3.00000000000e+03
-1.01508055153e+03
2.82068465585e+02
-3.17589151010e+03
-8.85016900732e+02
1.56947280236e+02
-3.32500513225e+03
-6.90362891439e+02
7.33439770346e+01
-3.42463966919e+03
-4.60752832020e+02
4.39864010275e+01
-3.45962666587e+03
-2.31142772601e+02
7.33439770346e+01
-3.42463966919e+03
-3.64887633081e+01
1.56947280236e+02
-3.32500513225e+03
9.35748874867e+01
2.82068465585e+02
-3.17589151010e+03
-3.85501157466e+02
1.86482312474e+02
-3.28980665147e+03
-5.42147648576e+02
6.95030235725e+02
-2.68374283693e+03
-8.39068547352e+02
3.81288122828e+02
-3.05764612713e+03
-7.08121434506e+01
4.83655900143e+02
-2.93564896075e+03
-7.81473409133e+02
5.67407476355e+02
-2.83583771891e+03
-6.34476559427e+02
2.26776986862e+02
-3.24178532851e+03
-2.34565328910e+02
6.48692719502e+02
-2.73896573837e+03
-1.42041358264e+02
2.85161188911e+02
-3.17220574597e+03
-1.44990189488e+01
3.72601666001e+02
-3.06799824326e+03
-2.65198556211e+02
4.05153668847e+02
-3.02920427692e+03
-2.55159122143e+02
5.40647758235e+02
-2.86772870912e+03
-4.63043301905e+02
4.99903277397e+02
-2.91628609053e+03
-5.29764428503e+02
3.64241917225e+02
-3.07796100389e+03
-6.80842827495e+02
4.59203661243e+02
-2.96479000430e+03
-3.76782071951e+02
3.02472868463e+02
-3.15157448967e+03
-8.24371166880e+01
5.92144412527e+02
-2.80635738636e+03
-7.13535311394e+02
6.72835621205e+02
-2.71019334853e+03
-3.74101443840e+02
7.12031896534e+02
-2.66348104659e+03
-9.07006645091e+02
4.86716267677e+02
-2.93200175674e+03
-8.20248311744e+02
2.73234816746e+02
-3.18641904284e+03
-2.26842404126e+02
1.96767464581e+02
-3.27754928450e+03
-5.42773360088e+02
1.32647419350e+02
-3.35396457876e+03
-6.10120761438e+02
5.73350861291e+02
-2.82875466856e+03
-7.00880134904e+02
3.40949100981e+02
-3.10572030134e+03
-4.13189601135e+02
6.11609458114e+02
-2.78315984835e+03

</DataArray>
</Points>
<Cells>
<DataArray type="Int64" Name="connectivity" format="ascii">
0
1
36
0
15
17
0
17
36
1
2
21
1
21
36
2
3
24
2
21
24
3
4
18
3
18
24
4
5
33
4
18
33
5
6
22
5
22
33
6
7
34
6
22
34
7
8
16
7
16
34
8
9
35
8
16
35
9
10
23
9
23
35
10
11
32
10
23
32
11
12
19
11
19
32
12
13
37
12
19
37
13
14
20
13
20
37
14
15
31
14
20
31
15
17
31
16
22
30
16
22
34
16
28
30
16
28
39
16
35
39
17
26
36
17
26
40
17
31
40
18
24
25
18
25
30
18
30
33
19
29
32
19
29
38
19
37
38
20
31
40
20
37
38
20
38
40
21
24
25
21
25
26
21
26
36
22
30
33
23
29
32
23
29
39
23
35
39
25
26
27
25
27
28
25
28
30
26
27
40
27
28
29
27
29
38
27
38
40
28
29
39
41
42
77
41
56
58
41
58
77
42
43
62
42
62
77
43
44
65
43
62
65
44
45
59
44
59
65
45
46
74
45
59
74
46
47
63
46
63
74
47
48
75
47
63
75
48
49
57
48
57
75
49
50
76
49
57
76
50
51
64
50
64
76
51
52
73
51
64
73
52
53
60
52
60
73
53
54
78
53
60
78
54
55
61
54
61
78
55
56
72
55
61
72
56
58
72
57
63
71
57
63
75
57
69
71
57
69
80
57
76
80
58
67
77
58
67
81
58
72
81
59
65
66
59
66
71
59
71
74
60
70
73
60
70
79
60
78
79
61
72
81
61
78
79
61
79
81
62
65
66
62
66
67
62
67
77
63
71
74
64
70
73
64
70
80
64
76
80
66
67
68
66
68
69
66
69
71
67
68
81
68
69
70
68
70
79
68
79
81
69
70
80
82
83
101
82
97
106
82
101
106
83
84
113
83
101
113
84
85
104
84
104
113
85
86
115
85
104
115
86
87
99
86
99
115
87
88
114
87
99
114
88
89
102
88
102
114
89
90
116
89
102
116
90
91
100
90
100
116
91
92
117
91
100
117
92
93
103
92
103
117
93
94
119
93
103
119
94
95
98
94
98
119
95
96
118
95
98
118
96
97
105
96
105
118
97
105
106
98
103
112
98
103
119
98
112
118
99
114
120
99
115
122
99
120
122
100
111
116
100
111
121
100
117
121
101
106
107
101
107
108
101
108
113
102
111
116
102
111
120
102
114
120
103
110
112
103
110
121
103
117
121
104
108
113
104
108
122
104
115
122
105
106
107
105
107
112
105
112
118
107
108
109
107
109
110
107
110
112
108
109
122
109
110
111
109
111
120
109
120
122
110
111
121
123
124
142
123
138
147
123
142
147
124
125
154
124
142
154
125
126
145
125
145
154
126
127
156
126
145
156
127
128
140
127
140
156
128
129
155
128
140
155
129
130
143
129
143
155
130
131
157
130
143
157
131
132
141
131
141
157
132
133
158
132
141
158
133
134
144
133
144
158
134
135
160
134
144
160
135
136
139
135
139
160
136
137
159
136
139
159
137
138
146
137
146
159
138
146
147
139
144
153
139
144
160
139
153
159
140
155
161
140
156
163
140
161
163
141
152
157
141
152
162
141
158
162
142
147
148
142
148
149
142
149
154
143
152
157
143
152
161
143
155
161
144
151
153
144
151
162
144
158
162
145
149
154
145
149
163
145
156
163
146
147
148
146
148
153
146
153
159
148
149
150
148
150
151
148
151
153
149
150
163
150
151
152
150
152
161
150
161
163
151
152
162

</DataArray>
<DataArray type="Int64" Name="offsets" format="ascii">
3
6
9
12
15
18
21
24
27
30
33
36
39
42
45
48
51
54
57
60
63
66
69
72
75
78
81
84
87
90
93
96
99
102
105
108
111
114
117
120
123
126
129
132
135
138
141
144
147
150
153
156
159
162
165
168
171
174
177
180
183
186
189
192
195
198
201
204
207
210
213
216
219
222
225
228
231
234
237
240
243
246
249
252
255
258
261
264
267
270
273
276
279
282
285
288
291
294
297
300
303
306
309
312
315
318
321
324
327
330
333
336
339
342
345
348
351
354
357
360
363
366
369
372
375
378
381
384
387
390
393
396
399
402
405
408
411
414
417
420
423
426
429
432
435
438
441
444
447
450
453
456
459
462
465
468
471
474
477
480
483
486
489
492
495
498
501
504
507
510
513
516
519
522
525
528
531
534
537
540
543
546
549
552
555
558
561
564
567
570
573
576
579
582
585
588
591
594
597
600
603
606
609
612
615
618
621
624
627
630
633
636
639
642
645
648
651
654
657
660
663
666
669
672
675
678
681
684
687
690
693
696
699
702
705
708
711
714
717
720
723
726
729
732
735
738
741
744
747
750
753
756
759
762
765
768

</DataArray>
<DataArray type="Int64" Name="types" format="ascii">
5
5
5
5
5
5
5
5
5
5
5
5
5
5
5
5
5
5
5
5
5
5
5
5
5
5
5
5
5
5
5
5
5
5
5
5
5
5
5
5
5
5
5
5
5
5
5
5
5
5
5
5
5
5
5
5
5
5
5
5
5
5
5
5
5
5
5
5
5
5
5
5
5
5
5
5
5
5
5
5
5
5
5
5
5
5
5
5
5
5
5
5
5
5
5
5
5
5
5
5
5
5
5
5
5
5
5
5
5
5
5
5
5
5
5
5
5
5
5
5
5
5
5
5
5
5
5
5
5
5
5
5
5
5
5
5
5
5
5
5
5
5
5
5
5
5
5
5
5
5
5
5
5
5
5
5
5
5
5
5
5
5
5
5
5
5
5
5
5
5
5
5
5
5
5
5
5
5
5
5
5
5
5
5
5
5
5
5
5
5
5
5
5
5
5
5
5
5
5
5
5
5
5
5
5
5
5
5
5
5
5
5
5
5
5
5
5
5
5
5
5
5
5
5
5
5
5
5
5
5
5
5
5
5
5
5
5
5
5
5
5
5
5
5
5
5
5
5
5
5
5
5
5
5
5
5

</DataArray>
</Cells>
<PointData>
<DataArray type="Int64" Name="node_id" format="ascii">
0
1
2
3
4
5
6
7
8
9
10
11
12
13
14
15
16
17
18
19
20
21
22
23
24
25
26
27
28
29
30
31
32
33
34
35
36
37
38
39
40
41
42
43
44
45
46
47
48
49
50
51
52
53
54
55
56
57
58
59
60
61
62
63
64
65
66
67
68
69
70
71
72
73
74
75
76
77
78
79
80
81
0
1
2
3
4
5
6
7
8
9
10
11
12
13
14
15
16
17
18
19
20
21
22
23
24
25
26
27
28
29
30
31
32
33
34
35
36
37
38
39
40
41
42
43
44
45
46
47
48
49
50
51
52
53
54
55
56
57
58
59
60
61
62
63
64
65
66
67
68
69
70
71
72
73
74
75
76
77
78
79
80
81

</DataArray>
</PointData>
<CellData>
<DataArray type="Int64" Name="cell_id" format="ascii">
0
1
2
3
4
5
6
7
8
9
10
11
12
13
14
15
16
17
18
19
20
21
22
23
24
25
26
27
28
29
30
31
32
33
34
35
36
37
38
39
40
41
42
43
44
45
46
47
48
49
50
51
52
53
54
55
56
57
58
59
60
61
62
63
64
65
66
67
68
69
70
71
72
73
74
75
76
77
78
79
80
81
82
83
84
85
86
87
88
89
90
91
92
93
94
95
96
97
98
99
100
101
102
103
104
105
106
107
108
109
110
111
112
113
114
115
116
117
118
119
120
121
122
123
124
125
126
127
0
1
2
3
4
5
6
7
8
9
10
11
12
13
14
15
16
17
18
19
20
21
22
23
24
25
26
27
28
29
30
31
32
33
34
35
36
37
38
39
40
41
42
43
44
45
46
47
48
49
50
51
52
53
54
55
56
57
58
59
60
61
62
63
64
65
66
67
68
69
70
71
72
73
74
75
76
77
78
79
80
81
82
83
84
85
86
87
88
89
90
91
92
93
94
95
96
97
98
99
100
101
102
103
104
105
106
107
108
109
110
111
112
113
114
115
116
117
118
119
120
121
122
123
124
125
126
127

</DataArray>
<DataArray type="Int64" Name="grid_dim" format="ascii">
2
2
2
2
2
2
2
2
2
2
2
2
2
2
2
2
2
2
2
2
2
2
2
2
2
2
2
2
2
2
2
2
2
2
2
2
2
2
2
2
2
2
2
2
2
2
2
2
2
2
2
2
2
2
2
2
2
2
2
2
2
2
2
2
2
2
2
2
2
2
2
2
2
2
2
2
2
2
2
2
2
2
2
2
2
2
2
2
2
2
2
2
2
2
2
2
2
2
2
2
2
2
2
2
2
2
2
2
2
2
2
2
2
2
2
2
2
2
2
2
2
2
2
2
2
2
2
2
2
2
2
2
2
2
2
2
2
2
2
2
2
2
2
2
2
2
2
2
2
2
2
2
2
2
2
2
2
2
2
2
2
2
2
2
2
2
2
2
2
2
2
2
2
2
2
2
2
2
2
2
2
2
2
2
2
2
2
2
2
2
2
2
2
2
2
2
2
2
2
2
2
2
2
2
2
2
2
2
2
2
2
2
2
2
2
2
2
2
2
2
2
2
2
2
2
2
2
2
2
2
2
2
2
2
2
2
2
2
2
2
2
2
2
2
2
2
2
2
2
2
2
2
2
2
2
2

</DataArray>
<DataArray type="Float64" Name="interface_darcy_flux" format="ascii">
4.58791979550e-12
5.88551950177e-12
3.58543719270e-12
5.52885942419e-12
3.33318400171e-12
3.20896636422e-12
3.32524547043e-12
3.02732274025e-12
2.84332513170e-12
1.84981381353e-12
1.97621437927e-12
1.60491932501e-12
1.07983879335e-12
1.41113193483e-12
7.94112318538e-13
2.21036541050e-12
1.07746300187e-12
1.63734857570e-12
1.44672504959e-12
3.03741348687e-12
1.73504990892e-12
2.97630562417e-12
2.54677297431e-12
5.52665486575e-12
3.27173232785e-12
4.64102035148e-12
3.51664693010e-12
5.60451103257e-12
3.49147198571e-12
5.91384013076e-12
3.76635495565e-12
3.75818017042e-12
4.22117208512e-12
1.13548195370e-12
4.33375049158e-12
3.15869785020e-12
2.48835323262e-12
2.93111539297e-12
3.09067757452e-12
2.86503892426e-12
4.01513409528e-12
4.07742341775e-12
3.04586253107e-12
3.41053582906e-12
3.03396717962e-12
2.87065705845e-12
2.84289952517e-12
3.21005776032e-12
3.55583315458e-12
4.08619225393e-12
4.04997669687e-12
3.14726810768e-12
2.54998484169e-12
3.37913833206e-12
2.62365403425e-12
1.93214063608e-12
4.39669167312e-12
5.15672095312e-12
3.81358967434e-12
3.43927962343e-12
4.17790168654e-12
3.47346547192e-12
3.25179886821e-12
3.04861811254e-12
-2.88585398197e-12
-3.53541804875e-12
-2.22015330556e-12
-3.52665264320e-12
-1.87861345260e-12
-2.85585963910e-12
-2.26506795309e-12
-3.97960411165e-12
-2.21381564451e-12
-3.20177527878e-12
-2.27799047790e-12
-3.39587929237e-12
-1.88127855458e-12
-2.53100539196e-12
-1.83238010510e-12
-3.81126708714e-12
-1.89536609812e-12
-3.07162363091e-12
-2.30246296830e-12
-4.66134245954e-12
-2.27979246761e-12
-2.90413848446e-12
-2.35270908605e-12
-3.75278106644e-12
-1.75917908255e-12
-3.35273288563e-12
-2.27972014672e-12
-3.19574560062e-12
-2.21362054735e-12
-1.95541482849e-12
-1.64682663476e-12
-1.71875771501e-12
-1.94369982818e-12
-1.41871211921e-12
-1.75313988882e-12
-1.35489147337e-12
-1.36180470055e-12
-1.36480789346e-12
-1.22016265373e-12
-1.16703646918e-12
-1.84504116196e-12
-1.68713634962e-12
-1.52955214568e-12
-1.50064969255e-12
-1.22587398559e-12
-1.32325983519e-12
-1.18498642294e-12
-1.50706447599e-12
-1.49439282427e-12
-1.85597556479e-12
-1.61909440998e-12
-1.44843753206e-12
-1.29420262922e-12
-1.59579617890e-12
-1.09207918185e-12
-1.05615972673e-12
-1.60194506132e-12
-1.85342612018e-12
-1.44327657098e-12
-1.29402488774e-12
-1.53277312601e-12
-1.32683680300e-12
-1.26112598197e-12
-1.16101630823e-12
4.99185117483e-12
3.47772464003e-12
2.96295352991e-12
3.75110836738e-12
2.77978275172e-12
5.38294219940e-12
2.86189571248e-12
4.62948290295e-12
3.28703018797e-12
4.62823153031e-12
2.74195124527e-12
4.26431917873e-12
2.86553046891e-12
6.10877012093e-12
3.29154657145e-12
3.72135287589e-12
2.91923779310e-12
5.22306405436e-12
2.74528518520e-12
4.99066971049e-12
3.19454137569e-12
5.63076636058e-12
3.63514311303e-12
3.38364471781e-12
2.42713370856e-12
5.76371638309e-12
2.83698530276e-12
4.32468490015e-12
2.90885341635e-12
4.44229083544e-12
2.63268029664e-12
2.78737318086e-12
2.73741745666e-12
2.20068991224e-12
1.85692039926e-12
2.11149006148e-12
1.80280523772e-12
2.17371574879e-12
2.25037627493e-12
1.67277208712e-12
1.52634383599e-12
2.90189666013e-12
2.57180632282e-12
2.24305761484e-12
2.22997646846e-12
1.74284346554e-12
1.89098212060e-12
2.43299892520e-12
1.96557488668e-12
1.88262449827e-12
1.91076428236e-12
1.79935508912e-12
1.85959704432e-12
2.69562710817e-12
2.35505025737e-12
2.25320043980e-12
2.38299155491e-12
2.66095615171e-12
1.84109346006e-12
1.88370669465e-12
2.22860466776e-12
1.88828393345e-12
1.81410469758e-12
1.77139365077e-12
-9.68188458974e-13
-3.45467050195e-13
-5.25342976953e-13
-1.08957294213e-12
-1.03307483275e-12
-3.05272798163e-12
-2.02541570138e-12
-3.79628753035e-12
-2.92938384919e-12
-4.72824931120e-12
-3.06405717439e-12
-4.04617717702e-12
-3.16707633163e-12
-5.65724274299e-12
-3.30226654052e-12
-3.92450592321e-12
-3.37297063467e-12
-5.52348213219e-12
-3.32666292089e-12
-4.27628592180e-12
-3.35362813943e-12
-4.27592185841e-12
-3.91899206698e-12
-8.68154399993e-13
-2.24718170004e-12
-1.09273333195e-12
-1.15968619974e-12
-5.18983938776e-13
-6.92524913498e-13
-7.42035102911e-13
-5.41691812639e-13
-5.47621968367e-13
-4.79811504042e-12
-2.95358099350e-12
-2.84318492311e-12
-3.00511078014e-12
-2.54116304952e-12
-3.32983979464e-12
-3.41231111809e-12
-2.67778377491e-12
-2.22534682693e-12
-3.47985254954e-12
-4.27355587747e-12
-2.90419834505e-12
-3.36606476253e-12
-2.96692970705e-12
-2.74251287853e-12
-4.52624898888e-12
-3.37887212059e-12
-2.88545420458e-12
-2.73203484024e-12
-2.96932967547e-12
-2.61108382444e-12
-3.46465205120e-12
-4.56357391082e-12
-3.13762411254e-12
-4.57734404358e-12
-5.45704706389e-12
-3.83212016125e-12
-3.39462073650e-12
-4.24936393985e-12
-3.43876535722e-12
-3.15727868798e-12
-3.12428872041e-12

</DataArray>
<DataArray type="Int64" Name="interface_id" format="ascii">
0
0
0
0
0
0
0
0
0
0
0
0
0
0
0
0
0
0
0
0
0
0
0
0
0
0
0
0
0
0
0
0
0
0
0
0
0
0
0
0
0
0
0
0
0
0
0
0
0
0
0
0
0
0
0
0
0
0
0
0
0
0
0
0
0
0
0
0
0
0
0
0
0
0
0
0
0
0
0
0
0
0
0
0
0
0
0
0
0
0
0
0
0
0
0
0
0
0
0
0
0
0
0
0
0
0
0
0
0
0
0
0
0
0
0
0
0
0
0
0
0
0
0
0
0
0
0
0
1
1
1
1
1
1
1
1
1
1
1
1
1
1
1
1
1
1
1
1
1
1
1
1
1
1
1
1
1
1
1
1
1
1
1
1
1
1
1
1
1
1
1
1
1
1
1
1
1
1
1
1
1
1
1
1
1
1
1
1
1
1
1
1
1
1
1
1
1
1
1
1
1
1
1
1
1
1
1
1
1
1
1
1
1
1
1
1
1
1
1
1
1
1
1
1
1
1
1
1
1
1
1
1
1
1
1
1
1
1
1
1
1
1
1
1
1
1
1
1
1
1
1
1
1
1
1
1

</DataArray>
<DataArray type="Int64" Name="is_mortar" format="ascii">
1
1
1
1
1
1
1
1
1
1
1
1
1
1
1
1
1
1
1
1
1
1
1
1
1
1
1
1
1
1
1
1
1
1
1
1
1
1
1
1
1
1
1
1
1
1
1
1
1
1
1
1
1
1
1
1
1
1
1
1
1
1
1
1
1
1
1
1
1
1
1
1
1
1
1
1
1
1
1
1
1
1
1
1
1
1
1
1
1
1
1
1
1
1
1
1
1
1
1
1
1
1
1
1
1
1
1
1
1
1
1
1
1
1
1
1
1
1
1
1
1
1
1
1
1
1
1
1
1
1
1
1
1
1
1
1
1
1
1
1
1
1
1
1
1
1
1
1
1
1
1
1
1
1
1
1
1
1
1
1
1
1
1
1
1
1
1
1
1
1
1
1
1
1
1
1
1
1
1
1
1
1
1
1
1
1
1
1
1
1
1
1
1
1
1
1
1
1
1
1
1
1
1
1
1
1
1
1
1
1
1
1
1
1
1
1
1
1
1
1
1
1
1
1
1
1
1
1
1
1
1
1
1
1
1
1
1
1
1
1
1
1
1
1
1
1
1
1
1
1
1
1
1
1
1
1

</DataArray>
<DataArray type="Int64" Name="mortar_side" format="ascii">
1
1
1
1
1
1
1
1
1
1
1
1
1
1
1
1
1
1
1
1
1
1
1
1
1
1
1
1
1
1
1
1
1
1
1
1
1
1
1
1
1
1
1
1
1
1
1
1
1
1
1
1
1
1
1
1
1
1
1
1
1
1
1
1
2
2
2
2
2
2
2
2
2
2
2
2
2
2
2
2
2
2
2
2
2
2
2
2
2
2
2
2
2
2
2
2
2
2
2
2
2
2
2
2
2
2
2
2
2
2
2
2
2
2
2
2
2
2
2
2
2
2
2
2
2
2
2
2
1
1
1
1
1
1
1
1
1
1
1
1
1
1
1
1
1
1
1
1
1
1
1
1
1
1
1
1
1
1
1
1
1
1
1
1
1
1
1
1
1
1
1
1
1
1
1
1
1
1
1
1
1
1
1
1
1
1
1
1
1
1
1
1
2
2
2
2
2
2
2
2
2
2
2
2
2
2
2
2
2
2
2
2
2
2
2
2
2
2
2
2
2
2
2
2
2
2
2
2
2
2
2
2
2
2
2
2
2
2
2
2
2
2
2
2
2
2
2
2
2
2
2
2
2
2
2
2

</DataArray>
<DataArray type="Float64" Name="u_interface" NumberOfComponents="3" format="ascii">
-1.49891732733e-05
1.28258817940e-04
-6.46486955081e-04
-1.45830636640e-05
9.74417921863e-05
-5.83939624448e-04
-2.10435503453e-05
1.08230856734e-04
-6.20383162033e-04
-2.75360458459e-05
1.44064960216e-04
-6.98606902981e-04
-2.99135780228e-05
1.31683949565e-04
-6.75776793587e-04
-4.57980272187e-05
1.51984627043e-04
-7.51289090473e-04
-4.25614443999e-05
1.42017475229e-04
-7.20291533299e-04
-7.30042295889e-05
1.38389836082e-04
-7.80552159386e-04
-6.42417564124e-05
1.41500191677e-04
-7.61836392381e-04
-9.84027382577e-05
1.20472812110e-04
-7.86782633069e-04
-8.88823073185e-05
1.27316519905e-04
-7.81487732286e-04
-1.22625935541e-04
9.86066444542e-05
-7.72189515305e-04
-1.11105401121e-04
1.05052189352e-04
-7.79288869064e-04
-1.43501515734e-04
8.24521834684e-05
-7.45671051322e-04
-1.30585769138e-04
8.46304565335e-05
-7.63305533160e-04
-1.55119187203e-04
5.30089824201e-05
-7.06185285921e-04
-1.46191293718e-04
6.53384855275e-05
-7.27921849372e-04
-1.61645670792e-04
2.92958338818e-05
-6.53835305100e-04
-1.50579330076e-04
3.81461396159e-05
-6.87495596190e-04
-1.50608734269e-04
9.24521756094e-06
-5.97601334324e-04
-1.48842912981e-04
1.75318255131e-05
-6.34206890210e-04
-1.32559079384e-04
-6.63255812191e-06
-5.35580370597e-04
-1.36563126043e-04
-6.38813338182e-07
-5.77589643077e-04
-1.02130042776e-04
9.65624927231e-07
-5.03315282736e-04
-1.14538593208e-04
-5.17755693432e-06
-5.32977037300e-04
-7.07364861838e-05
1.27024505574e-05
-4.78072657525e-04
-8.64539570482e-05
7.06142236841e-06
-5.08810326451e-04
-4.40126123818e-05
3.67073690552e-05
-4.97138878036e-04
-5.97267878646e-05
2.28825999963e-05
-5.04338380491e-04
-2.36603959472e-05
6.65300084578e-05
-5.27153471582e-04
-3.70608712951e-05
5.15382476240e-05
-5.23094801865e-04
-2.58298739944e-05
7.95971353037e-05
-5.61922448021e-04
-1.18829151859e-04
8.01008608578e-05
-7.34682702182e-04
-1.31827684661e-04
7.29933550772e-05
-7.42263952388e-04
-1.13999079827e-04
6.86068811702e-05
-7.04570409814e-04
-1.22346095477e-04
5.08919789406e-05
-6.82309865065e-04
-1.35623692205e-04
3.95326845127e-05
-6.77391659195e-04
-3.78801073649e-05
9.98495581363e-05
-6.33259879218e-04
-4.68824430580e-05
8.19837901755e-05
-6.14769202076e-04
-4.13324512699e-05
7.08313653475e-05
-5.80302262088e-04
-6.99537235849e-05
1.21012393143e-04
-7.30958716208e-04
-8.49535724376e-05
1.04490451877e-04
-7.25515312774e-04
-9.43067780859e-05
1.10204280173e-04
-7.51585107583e-04
-1.10022780898e-04
1.07994467715e-05
-5.74999537272e-04
-9.56761414324e-05
2.39440259156e-05
-5.78093028795e-04
-8.52190718396e-05
1.88645208452e-05
-5.43365847235e-04
-4.83009306509e-05
5.41073599297e-05
-5.55779675190e-04
-6.99480995015e-05
2.87086463138e-05
-5.38276356807e-04
-6.34140609384e-05
4.44967141093e-05
-5.64161219651e-04
-5.78067949769e-05
1.21473784452e-04
-7.09974342422e-04
-5.70823874980e-05
1.06687624273e-04
-6.78720688200e-04
-4.20543357667e-05
1.13047722864e-04
-6.64953171801e-04
-1.07285455835e-04
9.87098270124e-05
-7.52458138798e-04
-1.21301584888e-04
1.38495583054e-05
-5.98518346643e-04
-1.21377308285e-04
2.69048675070e-05
-6.27442143847e-04
-1.34463847506e-04
2.66499979734e-05
-6.44005538696e-04
-6.83395390689e-05
8.56786863869e-05
-6.59261421287e-04
-8.61140949556e-05
7.41473096033e-05
-6.67241171654e-04
-9.33359689724e-05
8.34137836930e-05
-6.99048769559e-04
-6.21737714907e-05
7.32896249370e-05
-6.24153704769e-04
-9.67382473723e-05
5.14799188433e-05
-6.39064103553e-04
-8.87511650579e-05
4.25977517386e-05
-6.06816403658e-04
-7.18218745843e-05
5.34584151306e-05
-5.99684604250e-04
-1.11958974445e-04
4.27987678455e-05
-6.47632504198e-04
-1.54639432404e-05
1.85208502634e-04
-5.90969651485e-04
-1.92238630066e-05
1.55775468685e-04
-5.27091445454e-04
-2.43232625600e-05
1.79011504163e-04
-5.51390143321e-04
-2.73942568801e-05
2.02826858334e-04
-6.41322778486e-04
-2.59317190611e-05
2.06602629575e-04
-6.02752798122e-04
-4.29680399770e-05
2.15722674234e-04
-6.89160243347e-04
-3.96755398043e-05
2.15821917266e-04
-6.48348800989e-04
-6.85241298818e-05
2.24637464991e-04
-6.96485175409e-04
-5.78922687148e-05
2.30097054834e-04
-6.75490398316e-04
-9.32826649150e-05
2.22266556035e-04
-6.90720810337e-04
-8.27540696702e-05
2.33690027399e-04
-6.77807033581e-04
-1.21859532315e-04
2.02791433670e-04
-6.70625069709e-04
-1.08101323362e-04
2.23852523522e-04
-6.63479961087e-04
-1.48644090018e-04
1.91824529191e-04
-6.40444041415e-04
-1.34829542010e-04
2.09184968018e-04
-6.41890597430e-04
-1.55012094351e-04
1.71313763895e-04
-5.90855662604e-04
-1.43002539094e-04
1.89349274781e-04
-6.07033822437e-04
-1.66690519164e-04
1.41803890904e-04
-5.44167970192e-04
-1.54870737271e-04
1.69289551803e-04
-5.59657249977e-04
-1.57036677337e-04
1.13342631197e-04
-4.96141688882e-04
-1.54206240862e-04
1.41675654021e-04
-5.13196678601e-04
-1.40694797879e-04
8.88040915387e-05
-4.42578549446e-04
-1.41835494006e-04
1.16583611114e-04
-4.63327046700e-04
-1.08485729398e-04
9.23366835194e-05
-4.14264210412e-04
-1.20810047635e-04
1.08607034191e-04
-4.22071260420e-04
-7.84680500111e-05
8.30195935398e-05
-4.09566459931e-04
-9.30350872581e-05
1.06086230964e-04
-4.12297746607e-04
-5.18348008099e-05
1.07044200871e-04
-4.28614477715e-04
-6.85601877753e-05
1.10202020184e-04
-4.19259670377e-04
-2.97029152086e-05
1.31136786637e-04
-4.64199764612e-04
-4.57649490635e-05
1.32007167353e-04
-4.44696707388e-04
-3.20554717691e-05
1.51465780124e-04
-4.91888204978e-04
-1.17690372852e-04
2.22699269272e-04
-5.95670844485e-04
-1.29633781792e-04
2.11187176309e-04
-6.07547205422e-04
-1.15223418176e-04
2.14082803624e-04
-5.62753463097e-04
-1.25370958766e-04
1.97316010896e-04
-5.39571269914e-04
-1.39775902834e-04
1.81541862054e-04
-5.38959848156e-04
-3.96671425380e-05
1.96302332353e-04
-5.39234380418e-04
-5.18955198408e-05
1.91693046321e-04
-5.07830426480e-04
-4.85308846684e-05
1.69885051443e-04
-4.83765828413e-04
-6.61287818083e-05
2.30327636016e-04
-6.24399269137e-04
-8.30853920136e-05
2.27691479732e-04
-6.05413991169e-04
-9.08156281199e-05
2.30507726319e-04
-6.34312159663e-04
-1.14235339027e-04
1.47627407829e-04
-4.41619060021e-04
-1.00012903096e-04
1.56142003749e-04
-4.49226729664e-04
-9.06943603431e-05
1.34902666614e-04
-4.30258810871e-04
-5.48021513249e-05
1.52680513554e-04
-4.59706960839e-04
-7.67688638461e-05
1.35017748679e-04
-4.34662682858e-04
-6.97798533811e-05
1.54325580096e-04
-4.57112856674e-04
-5.53403588158e-05
2.25537953660e-04
-6.08530133102e-04
-5.53229283423e-05
2.17877361030e-04
-5.70328570813e-04
-3.97290530705e-05
2.11796100826e-04
-5.68690885367e-04
-1.04939010181e-04
2.27098478821e-04
-6.27300382855e-04
-1.26270213089e-04
1.52097714259e-04
-4.63755841431e-04
-1.25985004717e-04
1.67562486605e-04
-4.90329383294e-04
-1.41113630169e-04
1.63901718144e-04
-5.10221612380e-04
-6.85619524170e-05
2.10528635515e-04
-5.37551244571e-04
-8.68386190005e-05
2.09774934011e-04
-5.35024533172e-04
-9.40657458985e-05
2.20667588114e-04
-5.65246847070e-04
-6.59493534135e-05
1.93320155616e-04
-5.07147684239e-04
-9.98911855419e-05
1.91744245473e-04
-5.02330728786e-04
-9.21702584444e-05
1.75056556973e-04
-4.77693127293e-04
-7.62840048287e-05
1.76311523158e-04
-4.79929161229e-04
-1.16349592323e-04
1.87757798880e-04
-5.06325604012e-04
7.95332096619e-06
1.98529824552e-05
-7.07196259868e-04
1.00844737321e-05
-5.20125520693e-06
-6.52141913393e-04
1.38271394525e-06
-2.00007669762e-06
-6.86192187866e-04
-1.30941916114e-07
4.54762068329e-05
-7.54719620962e-04
-1.82447185084e-06
2.52165933992e-05
-7.37314764261e-04
-2.03930201170e-05