<?xml version="1.0"?>
<VTKFile type="UnstructuredGrid" version="0.1" byte_order="LittleEndian">
<!--This file was created by meshio v5.3.5-->
<UnstructuredGrid>
<Piece NumberOfPoints="66" NumberOfCells="54">
<Points>
<DataArray type="Float64" Name="Points" NumberOfComponents="3" format="ascii">
1.39393398282e+03
1.39393398282e+03
0.00000000000e+00
1.41179535368e+03
1.41179535368e+03
0.00000000000e+00
1.43232233047e+03
1.43232233047e+03
0.00000000000e+00
1.45342838492e+03
1.45342838492e+03
0.00000000000e+00
1.47071067812e+03
1.47071067812e+03
0.00000000000e+00
1.47071067812e+03
1.47071067812e+03
0.00000000000e+00
1.48193258519e+03
1.48193258519e+03
0.00000000000e+00
1.49342724784e+03
1.49342724784e+03
0.00000000000e+00
1.49342724784e+03
1.49342724784e+03
0.00000000000e+00
1.50904698282e+03
1.50904698282e+03
0.00000000000e+00
1.52763241449e+03
1.52763241449e+03
0.00000000000e+00
1.54974663251e+03
1.54974663251e+03
0.00000000000e+00
1.57790632484e+03
1.57790632484e+03
0.00000000000e+00
1.60606601718e+03
1.60606601718e+03
0.00000000000e+00
1.53858192988e+03
1.44259748515e+03
-3.17609274809e-14
1.52114931535e+03
1.44981831051e+03
-2.75711842631e-14
1.50464630400e+03
1.45665408163e+03
-2.36048612666e-14
1.48715643064e+03
1.46389862438e+03
-1.94013564997e-14
1.47071067812e+03
1.47071067812e+03
-1.54487950524e-14
1.47071067812e+03
1.47071067812e+03
-1.54487950524e-14
1.45304681743e+03
1.47802728878e+03
-1.12034742825e-14
1.43658747974e+03
1.48484496968e+03
-7.24764778577e-15
1.42125052293e+03
1.49119774519e+03
-3.56157357826e-15
1.42125052293e+03
1.49119774519e+03
-3.56157357826e-15
1.40130004629e+03
1.49946150319e+03
1.23331097877e-15
1.38324876479e+03
1.50693858881e+03
5.57174421368e-15
1.36953298920e+03
1.51261984908e+03
8.86818478458e-15
1.35689390814e+03
1.51785512787e+03
1.19058532910e-14
1.34524700666e+03
1.52267943242e+03
1.47050620056e-14
1.33447013049e+03
1.52714336069e+03
1.72951694016e-14
1.32076403469e+03
1.53282061146e+03
2.05892835364e-14
1.30333253839e+03
1.54004097364e+03
2.47787580011e-14
1.26141807012e+03
1.55740251485e+03
3.48524539966e-14
1.35049190148e+03
1.38676982764e+03
0.00000000000e+00
1.36888437097e+03
1.41391404339e+03
0.00000000000e+00
1.38587121221e+03
1.43898378642e+03
0.00000000000e+00
1.39965561239e+03
1.45932726084e+03
0.00000000000e+00
1.41134230515e+03
1.47657486917e+03
0.00000000000e+00
1.42125052293e+03
1.49119774519e+03
0.00000000000e+00
1.42125052293e+03
1.49119774519e+03
0.00000000000e+00
1.42793393353e+03
1.50106134396e+03
0.00000000000e+00
1.43470544167e+03
1.51105495999e+03
0.00000000000e+00
1.43470544167e+03
1.51105495999e+03
0.00000000000e+00
1.44544778660e+03
1.52690886850e+03
0.00000000000e+00
1.45918158042e+03
1.54717765638e+03
0.00000000000e+00
1.47673985439e+03
1.57309073877e+03
0.00000000000e+00
1.49775706075e+03
1.60410862815e+03
0.00000000000e+00
1.51877426711e+03
1.63512651754e+03
0.00000000000e+00
1.35085784293e+03
1.53622518945e+03
0.00000000000e+00
1.36362541245e+03
1.53239248989e+03
0.00000000000e+00
1.37756419926e+03
1.52820820236e+03
0.00000000000e+00
1.39278164230e+03
1.52364007472e+03
0.00000000000e+00
1.40579827607e+03
1.51973260851e+03
0.00000000000e+00
1.41975046517e+03
1.51554429774e+03
0.00000000000e+00
1.43470544167e+03
1.51105495999e+03
0.00000000000e+00
1.43470544167e+03
1.51105495999e+03
0.00000000000e+00
1.44893214192e+03
1.50678424366e+03
0.00000000000e+00
1.46406634475e+03
1.50224110392e+03
0.00000000000e+00
1.47834301498e+03
1.49795538708e+03
0.00000000000e+00
1.49342724784e+03
1.49342724784e+03
0.00000000000e+00
1.49342724784e+03
1.49342724784e+03
0.00000000000e+00
1.51985841184e+03
1.48549287080e+03
0.00000000000e+00
1.54884647045e+03
1.47679093899e+03
0.00000000000e+00
1.56969205210e+03
1.47053329916e+03
0.00000000000e+00
1.59351857559e+03
1.46338080973e+03
0.00000000000e+00
1.63819068074e+03
1.44997068048e+03
0.00000000000e+00

</DataArray>
</Points>
<Cells>
<DataArray type="Int64" Name="connectivity" format="ascii">
0
1
1
2
2
3
3
4
5
6
6
7
8
9
9
10
10
11
11
12
12
13
14
15
15
16
16
17
17
18
19
20
20
21
21
22
23
24
24
25
25
26
26
27
27
28
28
29
29
30
30
31
31
32
33
34
34
35
35
36
36
37
37
38
39
40
40
41
42
43
43
44
44
45
45
46
46
47
48
49
49
50
50
51
51
52
52
53
53
54
55
56
56
57
57
58
58
59
60
61
61
62
62
63
63
64
64
65

</DataArray>
<DataArray type="Int64" Name="offsets" format="ascii">
2
4
6
8
10
12
14
16
18
20
22
24
26
28
30
32
34
36
38
40
42
44
46
48
50
52
54
56
58
60
62
64
66
68
70
72
74
76
78
80
82
84
86
88
90
92
94
96
98
100
102
104
106
108

</DataArray>
<DataArray type="Int64" Name="types" format="ascii">
3
3
3
3
3
3
3
3
3
3
3
3
3
3
3
3
3
3
3
3
3
3
3
3
3
3
3
3
3
3
3
3
3
3
3
3
3
3
3
3
3
3
3
3
3
3
3
3
3
3
3
3
3
3

</DataArray>
</Cells>
<PointData>
<DataArray type="Int64" Name="node_id" format="ascii">
0
1
2
3
4
5
6
7
8
9
10
11
12
13
0
1
2
3
4
5
6
7
8
9
10
11
12
13
14
15
16
17
18
0
1
2
3
4
5
6
7
8
9
10
11
12
13
14
0
1
2
3
4
5
6
7
8
9
10
11
12
13
14
15
16
17

</DataArray>
</PointData>
<CellData>
<DataArray type="Float64" Name="aperture" format="ascii">
1.49280287409e-03
2.13150318891e-03
2.83231789174e-03
3.59601062330e-03
4.51257129500e-03
5.32562150288e-03
1.53788997742e-02
1.58638254915e-02
1.50696899112e-02
1.28346241490e-02
8.66598337716e-03
1.00000000000e-03
1.00000000000e-03
1.00000000000e-03
1.00000000000e-03
1.00000000000e-03
1.00000000000e-03
1.00000000000e-03
1.20409210699e-03
1.21490395852e-03
1.25575635558e-03
1.51004899861e-03
1.84010401849e-03
1.95843596338e-03
1.85754059925e-03
1.69050471647e-03
1.47072767577e-03
1.55631159207e-03
1.58931310418e-03
1.40498836073e-03
1.24694029644e-03
1.19211888084e-03
3.15799059217e-03
3.08731729896e-03
1.00000000000e-03
1.00000000000e-03
1.00000000000e-03
1.00000000000e-03
1.02578512286e-03
1.43066245866e-03
1.93443590905e-03
2.30678739549e-03
2.45808540422e-03
2.49214998765e-03
2.48689077718e-03
4.98225037177e-03
4.93997155959e-03
4.84327224455e-03
4.78908095349e-03
1.24558615595e-03
1.36698108251e-03
1.80979478703e-03
2.38083801801e-03
2.65806898050e-03

</DataArray>
<DataArray type="Int64" Name="cell_id" format="ascii">
0
1
2
3
4
5
6
7
8
9
10
0
1
2
3
4
5
6
7
8
9
10
11
12
13
14
15
0
1
2
3
4
5
6
7
8
9
10
11
0
1
2
3
4
5
6
7
8
9
10
11
12
13
14

</DataArray>
<DataArray type="Float64" Name="contact_traction" NumberOfComponents="2" format="ascii">
0.00000000000e+00
0.00000000000e+00
0.00000000000e+00
0.00000000000e+00
0.00000000000e+00
0.00000000000e+00
0.00000000000e+00
0.00000000000e+00
0.00000000000e+00
0.00000000000e+00
0.00000000000e+00
0.00000000000e+00
0.00000000000e+00
0.00000000000e+00
0.00000000000e+00
0.00000000000e+00
0.00000000000e+00
0.00000000000e+00
0.00000000000e+00
0.00000000000e+00
0.00000000000e+00
0.00000000000e+00
1.91331218751e+05
-3.49261902113e+05
1.48760384754e+05
-4.21565682590e+05
3.58355673716e+04
-3.40578757566e+05
-1.44807758297e+04
-6.50289114744e+04
-7.42683691509e+04
-9.65655518094e+04
-6.07934559963e+04
-1.34338929551e+05
-5.83513157654e+04
-1.49278457188e+05
-4.35261699886e+04
-4.35261699886e+04
-6.23197834571e+04
-6.23197834571e+04
0.00000000000e+00
0.00000000000e+00
0.00000000000e+00
0.00000000000e+00
0.00000000000e+00
0.00000000000e+00
0.00000000000e+00
0.00000000000e+00
0.00000000000e+00
0.00000000000e+00
0.00000000000e+00
0.00000000000e+00
0.00000000000e+00
0.00000000000e+00
0.00000000000e+00
0.00000000000e+00
0.00000000000e+00
0.00000000000e+00
0.00000000000e+00
0.00000000000e+00
0.00000000000e+00
0.00000000000e+00
3.97336463101e+04
-3.97336463101e+04
0.00000000000e+00
0.00000000000e+00
0.00000000000e+00
0.00000000000e+00
1.25229072586e+05
-3.97761767913e+05
1.12411802689e+05
-4.67785541842e+05
5.48303390642e+03
-5.10644620281e+05
-1.61277102245e+05
-4.33677316561e+05
-2.17464863783e+05
-2.17464863783e+05
0.00000000000e+00
0.00000000000e+00
0.00000000000e+00
0.00000000000e+00
0.00000000000e+00
0.00000000000e+00
0.00000000000e+00
0.00000000000e+00
0.00000000000e+00
0.00000000000e+00
0.00000000000e+00
0.00000000000e+00
0.00000000000e+00
0.00000000000e+00
0.00000000000e+00
0.00000000000e+00
0.00000000000e+00
0.00000000000e+00
0.00000000000e+00
0.00000000000e+00
4.26968726065e+05
-4.26968726065e+05
1.30098189355e+05
-1.30098189355e+05
0.00000000000e+00
0.00000000000e+00
0.00000000000e+00
0.00000000000e+00
0.00000000000e+00
0.00000000000e+00

</DataArray>
<DataArray type="Int64" Name="grid_dim" format="ascii">
1
1
1
1
1
1
1
1
1
1
1
1
1
1
1
1
1
1
1
1
1
1
1
1
1
1
1
1
1
1
1
1
1
1
1
1
1
1
1
1
1
1
1
1
1
1
1
1
1
1
1
1
1
1

</DataArray>
<DataArray type="Int64" Name="is_mortar" format="ascii">
0
0
0
0
0
0
0
0
0
0
0
0
0
0
0
0
0
0
0
0
0
0
0
0
0
0
0
0
0
0
0
0
0
0
0
0
0
0
0
0
0
0
0
0
0
0
0
0
0
0
0
0
0
0

</DataArray>
<DataArray type="Int64" Name="mortar_side" format="ascii">
0
0
0
0
0
0
0
0
0
0
0
0
0
0
0
0
0
0
0
0
0
0
0
0
0
0
0
0
0
0
0
0
0
0
0
0
0
0
0
0
0
0
0
0
0
0
0
0
0
0
0
0
0
0

</DataArray>
<DataArray type="Float64" Name="pressure" format="ascii">
-3.47350329409e+04
-3.47188906908e+04
-3.46835889987e+04
-3.46503844076e+04
1.59346127286e+05
1.59355842944e+05
1.00000000000e+06
9.99990892804e+05
9.99982225059e+05
9.99971756410e+05
9.99957535084e+05
1.92112632082e+05
1.91786098770e+05
1.91264224751e+05
1.90701326417e+05
3.24402874695e+04
3.22731459224e+04
3.20434043805e+04
-3.93606072224e+04
-3.94649655563e+04
-3.95687934867e+04
-3.96430045585e+04
-3.96805185068e+04
-3.96981091551e+04
-3.97106717139e+04
-3.97203534152e+04
-3.97289872430e+04
-5.08670256605e+04
-5.08057109921e+04
-5.06835811100e+04
-5.05138440896e+04
-5.03486351320e+04
8.81394921111e+03
8.82257518700e+03
2.88238034393e+05
2.89529430496e+05
2.91224710829e+05
2.92584092957e+05
2.93040581753e+05
1.04096232875e+04
1.04207101238e+04
1.04376554350e+04
1.04592517594e+04
1.04839266714e+04
1.05134254921e+04
1.69847740595e+05
1.69855530566e+05
1.69867768066e+05
1.69882544859e+05
4.20325976059e+05
4.19107005463e+05
4.18268170629e+05
4.17984822308e+05
4.17812255163e+05

</DataArray>
<DataArray type="Float64" Name="specific_volume" format="ascii">
1.49280287409e-03
2.13150318891e-03
2.83231789174e-03
3.59601062330e-03
4.51257129500e-03
5.32562150288e-03
1.53788997742e-02
1.58638254915e-02
1.50696899112e-02
1.28346241490e-02
8.66598337716e-03
1.00000000000e-03
1.00000000000e-03
1.00000000000e-03
1.00000000000e-03
1.00000000000e-03
1.00000000000e-03
1.00000000000e-03
1.20409210699e-03
1.21490395852e-03
1.25575635558e-03
1.51004899861e-03
1.84010401849e-03
1.95843596338e-03
1.85754059925e-03
1.69050471647e-03
1.47072767577e-03
1.55631159207e-03
1.58931310418e-03
1.40498836073e-03
1.24694029644e-03
1.19211888084e-03
3.15799059217e-03
3.08731729896e-03
1.00000000000e-03
1.00000000000e-03
1.00000000000e-03
1.00000000000e-03
1.02578512286e-03
1.43066245866e-03
1.93443590905e-03
2.30678739549e-03
2.45808540422e-03
2.49214998765e-03
2.48689077718e-03
4.98225037177e-03
4.93997155959e-03
4.84327224455e-03
4.78908095349e-03
1.24558615595e-03
1.36698108251e-03
1.80979478703e-03
2.38083801801e-03
2.65806898050e-03

</DataArray>
<DataArray type="Int64" Name="states" format="ascii">
2
2
2
2
2
2
2
2
2
2
2
0
0
0
0
0
0
0
1
1
2
2
2
2
2
2
2
2
2
2
2
1
2
2
0
0
0
0
1
2
2
2
2
2
2
2
2
2
2
1
1
2
2
2

</DataArray>
<DataArray type="Int64" Name="subdomain_id" format="ascii">
1
1
1
1
1
1
1
1
1
1
1
2
2
2
2
2
2
2
2
2
2
2
2
2
2
2
2
3
3
3
3
3
3
3
3
3
3
3
3
4
4
4
4
4
4
4
4
4
4
4
4
4
4
4

</DataArray>
</CellData>
</Piece>
</UnstructuredGrid>
</VTKFile>
