<?xml version="1.0"?>
<VTKFile type="UnstructuredGrid" version="0.1" byte_order="LittleEndian">
<!--This file was created by meshio v5.3.5-->
<UnstructuredGrid>
<Piece NumberOfPoints="132" NumberOfCells="108">
<Points>
<DataArray type="Float64" Name="Points" NumberOfComponents="3" format="ascii">
1.39393398282e+03
1.39393398282e+03
0.00000000000e+00
1.41179535368e+03
1.41179535368e+03
0.00000000000e+00
1.43232233047e+03
1.43232233047e+03
0.00000000000e+00
1.45342838492e+03
1.45342838492e+03
0.00000000000e+00
1.47071067812e+03
1.47071067812e+03
0.00000000000e+00
1.47071067812e+03
1.47071067812e+03
0.00000000000e+00
1.48193258519e+03
1.48193258519e+03
0.00000000000e+00
1.49342724784e+03
1.49342724784e+03
0.00000000000e+00
1.49342724784e+03
1.49342724784e+03
0.00000000000e+00
1.50904698282e+03
1.50904698282e+03
0.00000000000e+00
1.52763241449e+03
1.52763241449e+03
0.00000000000e+00
1.54974663251e+03
1.54974663251e+03
0.00000000000e+00
1.57790632484e+03
1.57790632484e+03
0.00000000000e+00
1.60606601718e+03
1.60606601718e+03
0.00000000000e+00
1.39393398282e+03
1.39393398282e+03
0.00000000000e+00
1.41179535368e+03
1.41179535368e+03
0.00000000000e+00
1.43232233047e+03
1.43232233047e+03
0.00000000000e+00
1.45342838492e+03
1.45342838492e+03
0.00000000000e+00
1.47071067812e+03
1.47071067812e+03
0.00000000000e+00
1.47071067812e+03
1.47071067812e+03
0.00000000000e+00
1.48193258519e+03
1.48193258519e+03
0.00000000000e+00
1.49342724784e+03
1.49342724784e+03
0.00000000000e+00
1.49342724784e+03
1.49342724784e+03
0.00000000000e+00
1.50904698282e+03
1.50904698282e+03
0.00000000000e+00
1.52763241449e+03
1.52763241449e+03
0.00000000000e+00
1.54974663251e+03
1.54974663251e+03
0.00000000000e+00
1.57790632484e+03
1.57790632484e+03
0.00000000000e+00
1.60606601718e+03
1.60606601718e+03
0.00000000000e+00
1.53858192988e+03
1.44259748515e+03
0.00000000000e+00
1.52114931535e+03
1.44981831051e+03
0.00000000000e+00
1.50464630400e+03
1.45665408163e+03
0.00000000000e+00
1.48715643064e+03
1.46389862438e+03
0.00000000000e+00
1.47071067812e+03
1.47071067812e+03
0.00000000000e+00
1.47071067812e+03
1.47071067812e+03
0.00000000000e+00
1.45304681743e+03
1.47802728878e+03
0.00000000000e+00
1.43658747974e+03
1.48484496968e+03
0.00000000000e+00
1.42125052293e+03
1.49119774519e+03
0.00000000000e+00
1.42125052293e+03
1.49119774519e+03
0.00000000000e+00
1.40130004629e+03
1.49946150319e+03
0.00000000000e+00
1.38324876479e+03
1.50693858881e+03
0.00000000000e+00
1.36953298920e+03
1.51261984908e+03
0.00000000000e+00
1.35689390814e+03
1.51785512787e+03
0.00000000000e+00
1.34524700666e+03
1.52267943242e+03
0.00000000000e+00
1.33447013049e+03
1.52714336069e+03
0.00000000000e+00
1.32076403469e+03
1.53282061146e+03
0.00000000000e+00
1.30333253839e+03
1.54004097364e+03
0.00000000000e+00
1.26141807012e+03
1.55740251485e+03
0.00000000000e+00
1.53858192988e+03
1.44259748515e+03
0.00000000000e+00
1.52114931535e+03
1.44981831051e+03
0.00000000000e+00
1.50464630400e+03
1.45665408163e+03
0.00000000000e+00
1.48715643064e+03
1.46389862438e+03
0.00000000000e+00
1.47071067812e+03
1.47071067812e+03
0.00000000000e+00
1.47071067812e+03
1.47071067812e+03
0.00000000000e+00
1.45304681743e+03
1.47802728878e+03
0.00000000000e+00
1.43658747974e+03
1.48484496968e+03
0.00000000000e+00
1.42125052293e+03
1.49119774519e+03
0.00000000000e+00
1.42125052293e+03
1.49119774519e+03
0.00000000000e+00
1.40130004629e+03
1.49946150319e+03
0.00000000000e+00
1.38324876479e+03
1.50693858881e+03
0.00000000000e+00
1.36953298920e+03
1.51261984908e+03
0.00000000000e+00
1.35689390814e+03
1.51785512787e+03
0.00000000000e+00
1.34524700666e+03
1.52267943242e+03
0.00000000000e+00
1.33447013049e+03
1.52714336069e+03
0.00000000000e+00
1.32076403469e+03
1.53282061146e+03
0.00000000000e+00
1.30333253839e+03
1.54004097364e+03
0.00000000000e+00
1.26141807012e+03
1.55740251485e+03
0.00000000000e+00
1.35049190148e+03
1.38676982764e+03
0.00000000000e+00
1.36888437097e+03
1.41391404339e+03
0.00000000000e+00
1.38587121221e+03
1.43898378642e+03
0.00000000000e+00
1.39965561239e+03
1.45932726084e+03
0.00000000000e+00
1.41134230515e+03
1.47657486917e+03
0.00000000000e+00
1.42125052293e+03
1.49119774519e+03
0.00000000000e+00
1.42125052293e+03
1.49119774519e+03
0.00000000000e+00
1.42793393353e+03
1.50106134396e+03
0.00000000000e+00
1.43470544167e+03
1.51105495999e+03
0.00000000000e+00
1.43470544167e+03
1.51105495999e+03
0.00000000000e+00
1.44544778660e+03
1.52690886850e+03
0.00000000000e+00
1.45918158042e+03
1.54717765638e+03
0.00000000000e+00
1.47673985439e+03
1.57309073877e+03
0.00000000000e+00
1.49775706075e+03
1.60410862815e+03
0.00000000000e+00
1.51877426711e+03
1.63512651754e+03
0.00000000000e+00
1.35049190148e+03
1.38676982764e+03
0.00000000000e+00
1.36888437097e+03
1.41391404339e+03
0.00000000000e+00
1.38587121221e+03
1.43898378642e+03
0.00000000000e+00
1.39965561239e+03
1.45932726084e+03
0.00000000000e+00
1.41134230515e+03
1.47657486917e+03
0.00000000000e+00
1.42125052293e+03
1.49119774519e+03
0.00000000000e+00
1.42125052293e+03
1.49119774519e+03
0.00000000000e+00
1.42793393353e+03
1.50106134396e+03
0.00000000000e+00
1.43470544167e+03
1.51105495999e+03
0.00000000000e+00
1.43470544167e+03
1.51105495999e+03
0.00000000000e+00
1.44544778660e+03
1.52690886850e+03
0.00000000000e+00
1.45918158042e+03
1.54717765638e+03
0.00000000000e+00
1.47673985439e+03
1.57309073877e+03
0.00000000000e+00
1.49775706075e+03
1.60410862815e+03
0.00000000000e+00
1.51877426711e+03
1.63512651754e+03
0.00000000000e+00
1.35085784293e+03
1.53622518945e+03
0.00000000000e+00
1.36362541245e+03
1.53239248989e+03
0.00000000000e+00
1.37756419926e+03
1.52820820236e+03
0.00000000000e+00
1.39278164230e+03
1.52364007472e+03
0.00000000000e+00
1.40579827607e+03
1.51973260851e+03
0.00000000000e+00
1.41975046517e+03
1.51554429774e+03
0.00000000000e+00
1.43470544167e+03
1.51105495999e+03
0.00000000000e+00
1.43470544167e+03
1.51105495999e+03
0.00000000000e+00
1.44893214192e+03
1.50678424366e+03
0.00000000000e+00
1.46406634475e+03
1.50224110392e+03
0.00000000000e+00
1.47834301498e+03
1.49795538708e+03
0.00000000000e+00
1.49342724784e+03
1.49342724784e+03
0.00000000000e+00
1.49342724784e+03
1.49342724784e+03
0.00000000000e+00
1.51985841184e+03
1.48549287080e+03
0.00000000000e+00
1.54884647045e+03
1.47679093899e+03
0.00000000000e+00
1.56969205210e+03
1.47053329916e+03
0.00000000000e+00
1.59351857559e+03
1.46338080973e+03
0.00000000000e+00
1.63819068074e+03
1.44997068048e+03
0.00000000000e+00
1.35085784293e+03
1.53622518945e+03
0.00000000000e+00
1.36362541245e+03
1.53239248989e+03
0.00000000000e+00
1.37756419926e+03
1.52820820236e+03
0.00000000000e+00
1.39278164230e+03
1.52364007472e+03
0.00000000000e+00
1.40579827607e+03
1.51973260851e+03
0.00000000000e+00
1.41975046517e+03
1.51554429774e+03
0.00000000000e+00
1.43470544167e+03
1.51105495999e+03
0.00000000000e+00
1.43470544167e+03
1.51105495999e+03
0.00000000000e+00
1.44893214192e+03
1.50678424366e+03
0.00000000000e+00
1.46406634475e+03
1.50224110392e+03
0.00000000000e+00
1.47834301498e+03
1.49795538708e+03
0.00000000000e+00
1.49342724784e+03
1.49342724784e+03
0.00000000000e+00
1.49342724784e+03
1.49342724784e+03
0.00000000000e+00
1.51985841184e+03
1.48549287080e+03
0.00000000000e+00
1.54884647045e+03
1.47679093899e+03
0.00000000000e+00
1.56969205210e+03
1.47053329916e+03
0.00000000000e+00
1.59351857559e+03
1.46338080973e+03
0.00000000000e+00
1.63819068074e+03
1.44997068048e+03
0.00000000000e+00

</DataArray>
</Points>
<Cells>
<DataArray type="Int64" Name="connectivity" format="ascii">
0
1
1
2
2
3
3
4
5
6
6
7
8
9
9
10
10
11
11
12
12
13
14
15
15
16
16
17
17
18
19
20
20
21
22
23
23
24
24
25
25
26
26
27
28
29
29
30
30
31
31
32
33
34
34
35
35
36
37
38
38
39
39
40
40
41
41
42
42
43
43
44
44
45
45
46
47
48
48
49
49
50
50
51
52
53
53
54
54
55
56
57
57
58
58
59
59
60
60
61
61
62
62
63
63
64
64
65
66
67
67
68
68
69
69
70
70
71
72
73
73
74
75
76
76
77
77
78
78
79
79
80
81
82
82
83
83
84
84
85
85
86
87
88
88
89
90
91
91
92
92
93
93
94
94
95
96
97
97
98
98
99
99
100
100
101
101
102
103
104
104
105
105
106
106
107
108
109
109
110
110
111
111
112
112
113
114
115
115
116
116
117
117
118
118
119
119
120
121
122
122
123
123
124
124
125
126
127
127
128
128
129
129
130
130
131

</DataArray>
<DataArray type="Int64" Name="offsets" format="ascii">
2
4
6
8
10
12
14
16
18
20
22
24
26
28
30
32
34
36
38
40
42
44
46
48
50
52
54
56
58
60
62
64
66
68
70
72
74
76
78
80
82
84
86
88
90
92
94
96
98
100
102
104
106
108
110
112
114
116
118
120
122
124
126
128
130
132
134
136
138
140
142
144
146
148
150
152
154
156
158
160
162
164
166
168
170
172
174
176
178
180
182
184
186
188
190
192
194
196
198
200
202
204
206
208
210
212
214
216

</DataArray>
<DataArray type="Int64" Name="types" format="ascii">
3
3
3
3
3
3
3
3
3
3
3
3
3
3
3
3
3
3
3
3
3
3
3
3
3
3
3
3
3
3
3
3
3
3
3
3
3
3
3
3
3
3
3
3
3
3
3
3
3
3
3
3
3
3
3
3
3
3
3
3
3
3
3
3
3
3
3
3
3
3
3
3
3
3
3
3
3
3
3
3
3
3
3
3
3
3
3
3
3
3
3
3
3
3
3
3
3
3
3
3
3
3
3
3
3
3
3
3

</DataArray>
</Cells>
<PointData>
<DataArray type="Int64" Name="node_id" format="ascii">
0
1
2
3
4
5
6
7
8
9
10
11
12
13
14
15
16
17
18
19
20
21
22
23
24
25
26
27
0
1
2
3
4
5
6
7
8
9
10
11
12
13
14
15
16
17
18
19
20
21
22
23
24
25
26
27
28
29
30
31
32
33
34
35
36
37
0
1
2
3
4
5
6
7
8
9
10
11
12
13
14
15
16
17
18
19
20
21
22
23
24
25
26
27
28
29
0
1
2
3
4
5
6
7
8
9
10
11
12
13
14
15
16
17
18
19
20
21
22
23
24
25
26
27
28
29
30
31
32
33
34
35

</DataArray>
</PointData>
<CellData>
<DataArray type="Int64" Name="cell_id" format="ascii">
0
1
2
3
4
5
6
7
8
9
10
11
12
13
14
15
16
17
18
19
20
21
0
1
2
3
4
5
6
7
8
9
10
11
12
13
14
15
16
17
18
19
20
21
22
23
24
25
26
27
28
29
30
31
0
1
2
3
4
5
6
7
8
9
10
11
12
13
14
15
16
17
18
19
20
21
22
23
0
1
2
3
4
5
6
7
8
9
10
11
12
13
14
15
16
17
18
19
20
21
22
23
24
25
26
27
28
29

</DataArray>
<DataArray type="Int64" Name="grid_dim" format="ascii">
1
1
1
1
1
1
1
1
1
1
1
1
1
1
1
1
1
1
1
1
1
1
1
1
1
1
1
1
1
1
1
1
1
1
1
1
1
1
1
1
1
1
1
1
1
1
1
1
1
1
1
1
1
1
1
1
1
1
1
1
1
1
1
1
1
1
1
1
1
1
1
1
1
1
1
1
1
1
1
1
1
1
1
1
1
1
1
1
1
1
1
1
1
1
1
1
1
1
1
1
1
1
1
1
1
1
1
1

</DataArray>
<DataArray type="Float64" Name="interface_darcy_flux" format="ascii">
4.22968368024e-11
5.93903334882e-11
9.73956085758e-11
1.96209373826e-10
6.18718994075e-11
1.53367351296e-10
-9.28747974643e-10
-3.89119662523e-10
-3.10356082148e-10
-3.78539433859e-10
-6.73872857271e-10
1.49614326667e-11
1.51964623816e-11
3.55263756733e-11
1.11230062863e-10
-6.72854234777e-11
7.92816692383e-12
-7.35060784998e-10
-3.92769865603e-10
-3.59505811829e-10
-4.53715108083e-10
-7.16767598786e-10
2.11372144600e-11
-1.71179195806e-11
-5.60115577470e-11
-1.42350974061e-10
-9.90109308478e-11
-4.38928536096e-11
-6.75174722153e-11
-1.44576791280e-11
-2.62543441215e-12
-1.48732365865e-12
-1.91654377777e-12
-2.37516073955e-12
-2.93297261456e-12
-4.97016777348e-12
-7.75337764385e-12
-9.73202441331e-12
1.54510506770e-10
1.25197445009e-10
9.35087981831e-11
-7.17124575130e-12
1.24106870047e-10
7.47797841111e-11
4.94385472869e-12
5.48794380212e-11
4.02867537497e-11
3.27178520595e-11
3.29361561085e-11
3.44186889617e-11
3.37480242483e-11
4.47254519990e-11
6.07266674688e-11
1.23371770320e-10
4.13719614010e-11
3.04595324163e-11
2.42718403565e-11
3.07592473066e-11
6.88839802612e-11
4.11659014553e-11
1.09164654383e-10
-1.26106195408e-10
8.37573158187e-11
2.41204002537e-10
2.86538164027e-10
2.00601073904e-10
1.32841054031e-14
3.00963424583e-12
6.73939853279e-12
9.55984300147e-12
1.61651796977e-11
-2.26631817043e-11
5.76093924365e-12
-2.06566175866e-10
-7.21617381125e-11
-3.64914764538e-11
-3.33189509482e-11
-5.99335039286e-11
-3.59707663043e-11
-3.66935113836e-11
-3.60146006563e-11
-2.91359347957e-11
-2.55639566457e-11
-2.00028857158e-11
-1.37948788230e-10
-7.47122851768e-11
-4.65310824422e-11
-2.85148160920e-11
-2.74826220988e-10
-1.63120850110e-10
-9.65855559377e-11
-1.03594358855e-10
-2.49604066078e-10
4.29154413857e-11
5.43915401980e-11
7.03903841874e-11
7.53345433373e-11
1.06312475465e-10
2.13296511143e-10
1.62137467807e-10
1.44008589979e-10
2.33150916380e-10
5.50733294252e-10
9.89758320173e-10
3.36027255481e-10
1.42389612351e-10
9.38787230388e-11
7.94405308472e-13

</DataArray>
<DataArray type="Int64" Name="interface_id" format="ascii">
0
0
0
0
0
0
0
0
0
0
0
0
0
0
0
0
0
0
0
0
0
0
1
1
1
1
1
1
1
1
1
1
1
1
1
1
1
1
1
1
1
1
1
1
1
1
1
1
1
1
1
1
1
1
2
2
2
2
2
2
2
2
2
2
2
2
2
2
2
2
2
2
2
2
2
2
2
2
3
3
3
3
3
3
3
3
3
3
3
3
3
3
3
3
3
3
3
3
3
3
3
3
3
3
3
3
3
3

</DataArray>
<DataArray type="Int64" Name="is_mortar" format="ascii">
1
1
1
1
1
1
1
1
1
1
1
1
1
1
1
1
1
1
1
1
1
1
1
1
1
1
1
1
1
1
1
1
1
1
1
1
1
1
1
1
1
1
1
1
1
1
1
1
1
1
1
1
1
1
1
1
1
1
1
1
1
1
1
1
1
1
1
1
1
1
1
1
1
1
1
1
1
1
1
1
1
1
1
1
1
1
1
1
1
1
1
1
1
1
1
1
1
1
1
1
1
1
1
1
1
1
1
1

</DataArray>
<DataArray type="Int64" Name="mortar_side" format="ascii">
1
1
1
1
1
1
1
1
1
1
1
2
2
2
2
2
2
2
2
2
2
2
1
1
1
1
1
1
1
1
1
1
1
1
1
1
1
1
2
2
2
2
2
2
2
2
2
2
2
2
2
2
2
2
1
1
1
1
1
1
1
1
1
1
1
1
2
2
2
2
2
2
2
2
2
2
2
2
1
1
1
1
1
1
1
1
1
1
1
1
1
1
1
2
2
2
2
2
2
2
2
2
2
2
2
2
2
2

</DataArray>
<DataArray type="Float64" Name="u_interface" NumberOfComponents="2" format="ascii">
-6.40678760387e-07
-1.16456931059e-04
2.32765211762e-05
-1.46298607910e-04
4.64540216642e-05
-1.86198079603e-04
7.48149212687e-05
-2.33639787375e-04
1.22568861160e-04
-2.75977534560e-04
1.66595913857e-04
-3.24849010088e-04
4.86460790010e-04
-4.87128336770e-04
4.84556617961e-04
-5.40728957851e-04
4.26950026236e-04
-5.19303891877e-04
3.32874657392e-04
-4.29374915248e-04
2.03755999971e-04
-2.41325882689e-04
-5.72733759338e-05
-1.17220752973e-04
-8.54988033698e-05
-1.20912002252e-04
-1.17389319788e-04
-1.23075325810e-04
-1.45067802527e-04
-1.20382422127e-04
-1.69350875749e-04
-1.06709996817e-04
-1.82323590139e-04
-9.82165245427e-05
-5.88862056984e-04
4.45371900754e-04
-5.90939296028e-04
4.63228766531e-04
-5.75092417238e-04
4.49385032623e-04
-5.11669245222e-04
3.84741653955e-04
-3.48058862759e-04
2.81616021627e-04
8.11004737938e-05
-3.80873680249e-04
7.65874788369e-05
-3.75727614911e-04
7.61059555867e-05
-3.42548288125e-04
8.75834401496e-05
-2.86081218855e-04
-1.62348789426e-04
-1.21967627485e-04
-1.69354725377e-04
-1.31915834740e-04
-1.76395472294e-04
-1.39749036358e-04
-8.37450720721e-05
2.70242237720e-05
-8.34187074088e-05
2.21500095867e-05
-7.40145569091e-05
2.32937092423e-05
-6.99292170675e-05
2.57997380230e-05
-6.74635827091e-05
2.88861399641e-05
-6.58818455875e-05
3.28886917711e-05
-6.53846568020e-05
3.80415755930e-05
-6.57766575213e-05
4.64103688411e-05
-7.52681150923e-05
6.76111511871e-05
8.11004737938e-05
-3.80873680249e-04
7.65874788369e-05
-3.75727614911e-04
7.61059555867e-05
-3.42548288125e-04
8.75834401496e-05
-2.86081218855e-04
-1.62348789620e-04
-1.21967627381e-04
-1.69354725377e-04
-1.31915834740e-04
-1.76395472294e-04
-1.39749036358e-04
-2.66188019151e-04
1.24970568396e-04
-2.74366957704e-04
1.24662512417e-04
-2.88462941960e-04
1.38422497516e-04
-2.90980210743e-04
1.67591776064e-04
-2.81936470698e-04
1.99966301799e-04
-2.69198171466e-04
2.09784997223e-04
-2.63339314765e-04
2.01193154307e-04
-2.57033720293e-04
1.89239279451e-04
-2.24635382350e-04
1.72486232886e-04
-4.37049469818e-05
-8.86440619344e-05
-8.11938037332e-05
-1.19935336967e-04
-1.18001673620e-04
-1.34358766025e-04
-1.47560483751e-04
-1.40429295643e-04
-1.69813839902e-04
-1.42538095236e-04
-1.87856310298e-04
-1.44833505880e-04
-1.99772501707e-04
-1.42356623398e-04
-4.80515756217e-04
3.52776950391e-04
-4.86983812716e-04
3.81037890952e-04
-4.72415768096e-04
4.13521871111e-04
-4.16380394441e-04
4.31511862557e-04
-3.09085887483e-04
4.18310665312e-04
-3.61355139096e-05
1.06405982272e-05
-5.16795245847e-05
2.32345643933e-05
-6.08394583876e-05
2.46920448539e-05
-6.79320716553e-05
2.58120832591e-05
-7.74490653073e-05
2.83487375966e-05
-2.67665687439e-04
1.31223235723e-04
-2.72693147788e-04
1.33178032927e-04
-4.80515756217e-04
3.52776950391e-04
-4.86983812716e-04
3.81037890952e-04
-4.72415768096e-04
4.13521871111e-04
-4.16380394441e-04
4.31511862557e-04
-3.20267627785e-04
4.04913947678e-04
-2.60292088138e-04
1.87912976096e-04
-2.62140757631e-04
1.50860701063e-04
-2.71487348170e-04
1.27145539709e-04
-2.76615910909e-04
1.21541349537e-04
-2.77363613901e-04
1.24673907644e-04
-2.75975287155e-04
1.31367855791e-04
-2.00612340295e-04
-1.38046022678e-04
-1.96079605538e-04
-1.28381343095e-04
-1.93339488604e-04
-1.15100727352e-04
-1.89843100445e-04
-1.00589099052e-04
1.90379236823e-04
-4.37226787947e-04
1.22563974666e-04
-4.32466661152e-04
8.67946942435e-05
-3.90130477599e-04
8.17351823258e-05
-3.50854832425e-04
1.10205215323e-04
-2.77257293319e-04
-3.17114095338e-04
2.46990356220e-04
-3.41723047669e-04
2.65247746088e-04
-3.70619478721e-04
2.83038873607e-04
-3.99719182943e-04
2.98982800472e-04
-4.28131056489e-04
3.13650325327e-04
-4.59075054700e-04
3.29641350907e-04
-4.85567256370e-04
3.50239435903e-04
-5.16793775818e-04
3.66714049819e-04
-5.46887714014e-04
3.80650832403e-04
-5.70969849091e-04
3.99179691862e-04
4.27253845560e-04
-4.83183306826e-04
4.76838512022e-04
-5.01200176117e-04
5.15444790201e-04
-4.39388159580e-04
5.11091730462e-04
-3.42738115246e-04
4.48010214620e-04
-2.12624324680e-04

</DataArray>
</CellData>
</Piece>
</UnstructuredGrid>
</VTKFile>
