<?xml version="1.0"?>
<VTKFile type="UnstructuredGrid" version="0.1" byte_order="LittleEndian">
<!--This file was created by meshio v5.3.5-->
<UnstructuredGrid>
<Piece NumberOfPoints="132" NumberOfCells="108">
<Points>
<DataArray type="Float64" Name="Points" NumberOfComponents="3" format="ascii">
1.39393398282e+03
1.39393398282e+03
0.00000000000e+00
1.41179535368e+03
1.41179535368e+03
0.00000000000e+00
1.43232233047e+03
1.43232233047e+03
0.00000000000e+00
1.45342838492e+03
1.45342838492e+03
0.00000000000e+00
1.47071067812e+03
1.47071067812e+03
0.00000000000e+00
1.47071067812e+03
1.47071067812e+03
0.00000000000e+00
1.48193258519e+03
1.48193258519e+03
0.00000000000e+00
1.49342724784e+03
1.49342724784e+03
0.00000000000e+00
1.49342724784e+03
1.49342724784e+03
0.00000000000e+00
1.50904698282e+03
1.50904698282e+03
0.00000000000e+00
1.52763241449e+03
1.52763241449e+03
0.00000000000e+00
1.54974663251e+03
1.54974663251e+03
0.00000000000e+00
1.57790632484e+03
1.57790632484e+03
0.00000000000e+00
1.60606601718e+03
1.60606601718e+03
0.00000000000e+00
1.39393398282e+03
1.39393398282e+03
0.00000000000e+00
1.41179535368e+03
1.41179535368e+03
0.00000000000e+00
1.43232233047e+03
1.43232233047e+03
0.00000000000e+00
1.45342838492e+03
1.45342838492e+03
0.00000000000e+00
1.47071067812e+03
1.47071067812e+03
0.00000000000e+00
1.47071067812e+03
1.47071067812e+03
0.00000000000e+00
1.48193258519e+03
1.48193258519e+03
0.00000000000e+00
1.49342724784e+03
1.49342724784e+03
0.00000000000e+00
1.49342724784e+03
1.49342724784e+03
0.00000000000e+00
1.50904698282e+03
1.50904698282e+03
0.00000000000e+00
1.52763241449e+03
1.52763241449e+03
0.00000000000e+00
1.54974663251e+03
1.54974663251e+03
0.00000000000e+00
1.57790632484e+03
1.57790632484e+03
0.00000000000e+00
1.60606601718e+03
1.60606601718e+03
0.00000000000e+00
1.53858192988e+03
1.44259748515e+03
-3.17609274809e-14
1.52114931535e+03
1.44981831051e+03
-2.75711842631e-14
1.50464630400e+03
1.45665408163e+03
-2.36048612666e-14
1.48715643064e+03
1.46389862438e+03
-1.94013564997e-14
1.47071067812e+03
1.47071067812e+03
-1.54487950524e-14
1.47071067812e+03
1.47071067812e+03
-1.54487950524e-14
1.45304681743e+03
1.47802728878e+03
-1.12034742825e-14
1.43658747974e+03
1.48484496968e+03
-7.24764778577e-15
1.42125052293e+03
1.49119774519e+03
-3.56157357826e-15
1.42125052293e+03
1.49119774519e+03
-3.56157357826e-15
1.40130004629e+03
1.49946150319e+03
1.23331097877e-15
1.38324876479e+03
1.50693858881e+03
5.57174421368e-15
1.36953298920e+03
1.51261984908e+03
8.86818478458e-15
1.35689390814e+03
1.51785512787e+03
1.19058532910e-14
1.34524700666e+03
1.52267943242e+03
1.47050620056e-14
1.33447013049e+03
1.52714336069e+03
1.72951694016e-14
1.32076403469e+03
1.53282061146e+03
2.05892835364e-14
1.30333253839e+03
1.54004097364e+03
2.47787580011e-14
1.26141807012e+03
1.55740251485e+03
3.48524539966e-14
1.53858192988e+03
1.44259748515e+03
-3.17609274809e-14
1.52114931535e+03
1.44981831051e+03
-2.75711842631e-14
1.50464630400e+03
1.45665408163e+03
-2.36048612666e-14
1.48715643064e+03
1.46389862438e+03
-1.94013564997e-14
1.47071067812e+03
1.47071067812e+03
-1.54487950524e-14
1.47071067812e+03
1.47071067812e+03
-1.54487950524e-14
1.45304681743e+03
1.47802728878e+03
-1.12034742825e-14
1.43658747974e+03
1.48484496968e+03
-7.24764778577e-15
1.42125052293e+03
1.49119774519e+03
-3.56157357826e-15
1.42125052293e+03
1.49119774519e+03
-3.56157357826e-15
1.40130004629e+03
1.49946150319e+03
1.23331097877e-15
1.38324876479e+03
1.50693858881e+03
5.57174421368e-15
1.36953298920e+03
1.51261984908e+03
8.86818478458e-15
1.35689390814e+03
1.51785512787e+03
1.19058532910e-14
1.34524700666e+03
1.52267943242e+03
1.47050620056e-14
1.33447013049e+03
1.52714336069e+03
1.72951694016e-14
1.32076403469e+03
1.53282061146e+03
2.05892835364e-14
1.30333253839e+03
1.54004097364e+03
2.47787580011e-14
1.26141807012e+03
1.55740251485e+03
3.48524539966e-14
1.35049190148e+03
1.38676982764e+03
0.00000000000e+00
1.36888437097e+03
1.41391404339e+03
0.00000000000e+00
1.38587121221e+03
1.43898378642e+03
0.00000000000e+00
1.39965561239e+03
1.45932726084e+03
0.00000000000e+00
1.41134230515e+03
1.47657486917e+03
0.00000000000e+00
1.42125052293e+03
1.49119774519e+03
0.00000000000e+00
1.42125052293e+03
1.49119774519e+03
0.00000000000e+00
1.42793393353e+03
1.50106134396e+03
0.00000000000e+00
1.43470544167e+03
1.51105495999e+03
0.00000000000e+00
1.43470544167e+03
1.51105495999e+03
0.00000000000e+00
1.44544778660e+03
1.52690886850e+03
0.00000000000e+00
1.45918158042e+03
1.54717765638e+03
0.00000000000e+00
1.47673985439e+03
1.57309073877e+03
0.00000000000e+00
1.49775706075e+03
1.60410862815e+03
0.00000000000e+00
1.51877426711e+03
1.63512651754e+03
0.00000000000e+00
1.35049190148e+03
1.38676982764e+03
0.00000000000e+00
1.36888437097e+03
1.41391404339e+03
0.00000000000e+00
1.38587121221e+03
1.43898378642e+03
0.00000000000e+00
1.39965561239e+03
1.45932726084e+03
0.00000000000e+00
1.41134230515e+03
1.47657486917e+03
0.00000000000e+00
1.42125052293e+03
1.49119774519e+03
0.00000000000e+00
1.42125052293e+03
1.49119774519e+03
0.00000000000e+00
1.42793393353e+03
1.50106134396e+03
0.00000000000e+00
1.43470544167e+03
1.51105495999e+03
0.00000000000e+00
1.43470544167e+03
1.51105495999e+03
0.00000000000e+00
1.44544778660e+03
1.52690886850e+03
0.00000000000e+00
1.45918158042e+03
1.54717765638e+03
0.00000000000e+00
1.47673985439e+03
1.57309073877e+03
0.00000000000e+00
1.49775706075e+03
1.60410862815e+03
0.00000000000e+00
1.51877426711e+03
1.63512651754e+03
0.00000000000e+00
1.35085784293e+03
1.53622518945e+03
0.00000000000e+00
1.36362541245e+03
1.53239248989e+03
0.00000000000e+00
1.37756419926e+03
1.52820820236e+03
0.00000000000e+00
1.39278164230e+03
1.52364007472e+03
0.00000000000e+00
1.40579827607e+03
1.51973260851e+03
0.00000000000e+00
1.41975046517e+03
1.51554429774e+03
0.00000000000e+00
1.43470544167e+03
1.51105495999e+03
0.00000000000e+00
1.43470544167e+03
1.51105495999e+03
0.00000000000e+00
1.44893214192e+03
1.50678424366e+03
0.00000000000e+00
1.46406634475e+03
1.50224110392e+03
0.00000000000e+00
1.47834301498e+03
1.49795538708e+03
0.00000000000e+00
1.49342724784e+03
1.49342724784e+03
0.00000000000e+00
1.49342724784e+03
1.49342724784e+03
0.00000000000e+00
1.51985841184e+03
1.48549287080e+03
0.00000000000e+00
1.54884647045e+03
1.47679093899e+03
0.00000000000e+00
1.56969205210e+03
1.47053329916e+03
0.00000000000e+00
1.59351857559e+03
1.46338080973e+03
0.00000000000e+00
1.63819068074e+03
1.44997068048e+03
0.00000000000e+00
1.35085784293e+03
1.53622518945e+03
0.00000000000e+00
1.36362541245e+03
1.53239248989e+03
0.00000000000e+00
1.37756419926e+03
1.52820820236e+03
0.00000000000e+00
1.39278164230e+03
1.52364007472e+03
0.00000000000e+00
1.40579827607e+03
1.51973260851e+03
0.00000000000e+00
1.41975046517e+03
1.51554429774e+03
0.00000000000e+00
1.43470544167e+03
1.51105495999e+03
0.00000000000e+00
1.43470544167e+03
1.51105495999e+03
0.00000000000e+00
1.44893214192e+03
1.50678424366e+03
0.00000000000e+00
1.46406634475e+03
1.50224110392e+03
0.00000000000e+00
1.47834301498e+03
1.49795538708e+03
0.00000000000e+00
1.49342724784e+03
1.49342724784e+03
0.00000000000e+00
1.49342724784e+03
1.49342724784e+03
0.00000000000e+00
1.51985841184e+03
1.48549287080e+03
0.00000000000e+00
1.54884647045e+03
1.47679093899e+03
0.00000000000e+00
1.56969205210e+03
1.47053329916e+03
0.00000000000e+00
1.59351857559e+03
1.46338080973e+03
0.00000000000e+00
1.63819068074e+03
1.44997068048e+03
0.00000000000e+00

</DataArray>
</Points>
<Cells>
<DataArray type="Int64" Name="connectivity" format="ascii">
0
1
1
2
2
3
3
4
5
6
6
7
8
9
9
10
10
11
11
12
12
13
14
15
15
16
16
17
17
18
19
20
20
21
22
23
23
24
24
25
25
26
26
27
28
29
29
30
30
31
31
32
33
34
34
35
35
36
37
38
38
39
39
40
40
41
41
42
42
43
43
44
44
45
45
46
47
48
48
49
49
50
50
51
52
53
53
54
54
55
56
57
57
58
58
59
59
60
60
61
61
62
62
63
63
64
64
65
66
67
67
68
68
69
69
70
70
71
72
73
73
74
75
76
76
77
77
78
78
79
79
80
81
82
82
83
83
84
84
85
85
86
87
88
88
89
90
91
91
92
92
93
93
94
94
95
96
97
97
98
98
99
99
100
100
101
101
102
103
104
104
105
105
106
106
107
108
109
109
110
110
111
111
112
112
113
114
115
115
116
116
117
117
118
118
119
119
120
121
122
122
123
123
124
124
125
126
127
127
128
128
129
129
130
130
131

</DataArray>
<DataArray type="Int64" Name="offsets" format="ascii">
2
4
6
8
10
12
14
16
18
20
22
24
26
28
30
32
34
36
38
40
42
44
46
48
50
52
54
56
58
60
62
64
66
68
70
72
74
76
78
80
82
84
86
88
90
92
94
96
98
100
102
104
106
108
110
112
114
116
118
120
122
124
126
128
130
132
134
136
138
140
142
144
146
148
150
152
154
156
158
160
162
164
166
168
170
172
174
176
178
180
182
184
186
188
190
192
194
196
198
200
202
204
206
208
210
212
214
216

</DataArray>
<DataArray type="Int64" Name="types" format="ascii">
3
3
3
3
3
3
3
3
3
3
3
3
3
3
3
3
3
3
3
3
3
3
3
3
3
3
3
3
3
3
3
3
3
3
3
3
3
3
3
3
3
3
3
3
3
3
3
3
3
3
3
3
3
3
3
3
3
3
3
3
3
3
3
3
3
3
3
3
3
3
3
3
3
3
3
3
3
3
3
3
3
3
3
3
3
3
3
3
3
3
3
3
3
3
3
3
3
3
3
3
3
3
3
3
3
3
3
3

</DataArray>
</Cells>
<PointData>
<DataArray type="Int64" Name="node_id" format="ascii">
0
1
2
3
4
5
6
7
8
9
10
11
12
13
14
15
16
17
18
19
20
21
22
23
24
25
26
27
0
1
2
3
4
5
6
7
8
9
10
11
12
13
14
15
16
17
18
19
20
21
22
23
24
25
26
27
28
29
30
31
32
33
34
35
36
37
0
1
2
3
4
5
6
7
8
9
10
11
12
13
14
15
16
17
18
19
20
21
22
23
24
25
26
27
28
29
0
1
2
3
4
5
6
7
8
9
10
11
12
13
14
15
16
17
18
19
20
21
22
23
24
25
26
27
28
29
30
31
32
33
34
35

</DataArray>
</PointData>
<CellData>
<DataArray type="Int64" Name="cell_id" format="ascii">
0
1
2
3
4
5
6
7
8
9
10
11
12
13
14
15
16
17
18
19
20
21
0
1
2
3
4
5
6
7
8
9
10
11
12
13
14
15
16
17
18
19
20
21
22
23
24
25
26
27
28
29
30
31
0
1
2
3
4
5
6
7
8
9
10
11
12
13
14
15
16
17
18
19
20
21
22
23
0
1
2
3
4
5
6
7
8
9
10
11
12
13
14
15
16
17
18
19
20
21
22
23
24
25
26
27
28
29

</DataArray>
<DataArray type="Int64" Name="grid_dim" format="ascii">
1
1
1
1
1
1
1
1
1
1
1
1
1
1
1
1
1
1
1
1
1
1
1
1
1
1
1
1
1
1
1
1
1
1
1
1
1
1
1
1
1
1
1
1
1
1
1
1
1
1
1
1
1
1
1
1
1
1
1
1
1
1
1
1
1
1
1
1
1
1
1
1
1
1
1
1
1
1
1
1
1
1
1
1
1
1
1
1
1
1
1
1
1
1
1
1
1
1
1
1
1
1
1
1
1
1
1
1

</DataArray>
<DataArray type="Float64" Name="interface_darcy_flux" format="ascii">
3.41797342722e-10
5.42172732600e-10
9.44426087885e-10
2.00908883708e-09
6.75444108731e-10
1.47245344661e-09
-9.19014801544e-09
-3.85467982670e-09
-3.07754096331e-09
-3.75020687635e-09
-6.66008788518e-09
6.67963144583e-11
8.86689482110e-11
2.99252962357e-10
1.05080698047e-09
-7.23005636460e-10
6.28237248881e-11
-7.14519464510e-09
-3.81333131065e-09
-3.49535538076e-09
-4.43020153155e-09
-7.04140910894e-09
8.90737201796e-11
-2.51822443096e-10
-6.37266607267e-10
-1.51140218899e-09
-9.44342443740e-10
-4.34512349035e-10
-6.98115574325e-10
-9.82671445216e-11
-8.63561102282e-12
-5.26330158413e-12
-1.20416204847e-11
-1.85991578964e-11
-2.51280839732e-11
-4.45953423074e-11
-7.21779246328e-11
-1.01959047398e-10
1.39255574937e-09
1.13419003393e-09
8.27416715886e-10
-1.74250523517e-10
1.31558553532e-09
7.92862006385e-10
6.45599295628e-11
6.03618823978e-10
4.20402897146e-10
3.41611709578e-10
3.43451999200e-10
3.53167584693e-10
3.35888942293e-10
4.34499659838e-10
5.81746801937e-10
1.15429930086e-09
3.75481478285e-10
3.15912089527e-10
2.63357405785e-10
3.28298210172e-10
7.23809541591e-10
4.21647817967e-10
1.14651974755e-09
-1.37459622736e-09
7.33947856575e-10
2.28190662960e-09
2.72945163226e-09
1.87616403888e-09
-4.28735081712e-11
7.23271927638e-12
5.09672590151e-11
7.88213237594e-11
1.26708550522e-10
-2.90141570911e-10
-2.30823805158e-11
-2.27517539873e-09
-8.66164239956e-10
-5.11495371047e-10
-4.88902442110e-10
-7.69936857952e-10
-3.75212173211e-10
-3.77792187550e-10
-3.70232332473e-10
-2.97482571282e-10
-2.48298507585e-10
-1.23153169996e-10
-1.45735904333e-09
-7.90261901601e-10
-4.87150663333e-10
-2.77300489785e-10
-2.56407788243e-09
-1.53109033003e-09
-9.34811689347e-10
-1.02726669635e-09
-2.51087620629e-09
3.94836549952e-10
5.18764424934e-10
6.86148110384e-10
7.51988062359e-10
1.09261716810e-09
2.26763640893e-09
1.69341961918e-09
1.43633162481e-09
2.28785033788e-09
5.38533878741e-09
9.81179365487e-09
3.34332142552e-09
1.41401013188e-09
9.10431171408e-10
-8.99177827082e-11

</DataArray>
<DataArray type="Int64" Name="interface_id" format="ascii">
0
0
0
0
0
0
0
0
0
0
0
0
0
0
0
0
0
0
0
0
0
0
1
1
1
1
1
1
1
1
1
1
1
1
1
1
1
1
1
1
1
1
1
1
1
1
1
1
1
1
1
1
1
1
2
2
2
2
2
2
2
2
2
2
2
2
2
2
2
2
2
2
2
2
2
2
2
2
3
3
3
3
3
3
3
3
3
3
3
3
3
3
3
3
3
3
3
3
3
3
3
3
3
3
3
3
3
3

</DataArray>
<DataArray type="Int64" Name="is_mortar" format="ascii">
1
1
1
1
1
1
1
1
1
1
1
1
1
1
1
1
1
1
1
1
1
1
1
1
1
1
1
1
1
1
1
1
1
1
1
1
1
1
1
1
1
1
1
1
1
1
1
1
1
1
1
1
1
1
1
1
1
1
1
1
1
1
1
1
1
1
1
1
1
1
1
1
1
1
1
1
1
1
1
1
1
1
1
1
1
1
1
1
1
1
1
1
1
1
1
1
1
1
1
1
1
1
1
1
1
1
1
1

</DataArray>
<DataArray type="Int64" Name="mortar_side" format="ascii">
1
1
1
1
1
1
1
1
1
1
1
2
2
2
2
2
2
2
2
2
2
2
1
1
1
1
1
1
1
1
1
1
1
1
1
1
1
1
2
2
2
2
2
2
2
2
2
2
2
2
2
2
2
2
1
1
1
1
1
1
1
1
1
1
1
1
2
2
2
2
2
2
2
2
2
2
2
2
1
1
1
1
1
1
1
1
1
1
1
1
1
1
1
2
2
2
2
2
2
2
2
2
2
2
2
2
2
2

</DataArray>
<DataArray type="Float64" Name="u_interface" NumberOfComponents="2" format="ascii">
1.38897804147e-05
-1.23461099758e-03
2.75053180570e-04
-1.54438156325e-03
5.10750757625e-04
-1.95294255149e-03
7.92362421635e-04
-2.42669276967e-03
1.26738383895e-03
-2.84699886329e-03
1.70448773759e-03
-3.32862099337e-03
4.93249455548e-03
-4.94724315209e-03
4.89724919002e-03
-5.46957949593e-03
4.30855620678e-03
-5.23203090043e-03
3.36198772019e-03
-4.31216123239e-03
2.06531913454e-03
-2.40961225890e-03
-6.22235301881e-04
-1.17380757177e-03
-9.51476074167e-04
-1.17072366237e-03
-1.30750895367e-03
-1.17991344970e-03
-1.60027531466e-03
-1.14801707442e-03
-1.85583373061e-03
-1.00269046866e-03
-1.99460313363e-03
-9.10359269522e-04
-5.89151309911e-03
4.56358426606e-03
-5.91729097785e-03
4.73650393496e-03
-5.76526380124e-03
4.59169538238e-03
-5.13164322498e-03
3.93089379949e-03
-3.48275671293e-03
2.88364955454e-03
8.52742679593e-04
-3.87363211687e-03
8.09111121765e-04
-3.82688073373e-03
8.05171439120e-04
-3.50281680879e-03
9.20018534388e-04
-2.94657261157e-03
-1.78189395396e-03
-1.16571253064e-03
-1.85241168746e-03
-1.27749430235e-03
-1.91775486900e-03
-1.36709841091e-03
-9.71021503563e-04
2.94620246226e-04
-9.56095476823e-04
2.42959472810e-04
-8.50370387817e-04
2.49914959772e-04
-8.05967548282e-04
2.69730771753e-04
-7.76059949791e-04
2.96134473328e-04
-7.54875097507e-04
3.33231100034e-04
-7.43734580403e-04
3.82807503769e-04
-7.39174195222e-04
4.66503827012e-04
-8.19778727556e-04
6.87382869076e-04
8.52742679593e-04
-3.87363211687e-03
8.09111121765e-04
-3.82688073373e-03
8.05171439120e-04
-3.50281680879e-03
9.20018534388e-04
-2.94657261157e-03
-1.78189395396e-03
-1.16571253064e-03
-1.85241168746e-03
-1.27749430235e-03
-1.91775486900e-03
-1.36709841091e-03
-2.77219462799e-03
1.26159828729e-03
-2.85268638437e-03
1.26116351750e-03
-2.99339438549e-03
1.41441324855e-03
-3.00660980467e-03
1.73333969815e-03
-2.89849773283e-03
2.08459902540e-03
-2.75138549847e-03
2.19761639677e-03
-2.68036470588e-03
2.11318122311e-03
-2.60903421043e-03
1.98842212443e-03
-2.28363810101e-03
1.80324523968e-03
-4.65323052544e-04
-9.46393612985e-04
-9.00751439699e-04
-1.24654219169e-03
-1.31580601942e-03
-1.35206859384e-03
-1.62703709624e-03
-1.38355113783e-03
-1.83694401336e-03
-1.39030307476e-03
-2.04671548836e-03
-1.42473591704e-03
-2.17786276399e-03
-1.39383809445e-03
-4.83193993721e-03
3.64352445223e-03
-4.89694463771e-03
3.92623023005e-03
-4.75114602138e-03
4.24795550046e-03
-4.19136290240e-03
4.42708882991e-03
-3.08241959558e-03
4.31946933093e-03
-4.23008588908e-04
1.07802155430e-04
-6.00331169231e-04
2.47407065954e-04
-7.07804371548e-04
2.67220414376e-04
-7.96741075454e-04
2.82052142978e-04
-9.21911363180e-04
3.02626207140e-04
-2.78844694513e-03
1.32768087078e-03
-2.83956468412e-03
1.35069838374e-03
-4.83193993721e-03
3.64352445223e-03
-4.89694463771e-03
3.92623023005e-03
-4.75114602138e-03
4.24795550046e-03
-4.19136290240e-03
4.42708882991e-03
-3.24792288420e-03
4.12118169724e-03
-2.65500425661e-03
1.95357156321e-03
-2.68759839105e-03
1.55181042644e-03
-2.80009722913e-03
1.29126951980e-03
-2.86597428017e-03
1.22661380229e-03
-2.88225666012e-03
1.25843794944e-03
-2.87361356976e-03
1.33087629962e-03
-2.18830413469e-03
-1.34369648373e-03
-2.13989841998e-03
-1.23689995053e-03
-2.11164818182e-03
-1.09326235549e-03
-2.07563812200e-03
-9.36242230149e-04
1.93664302581e-03
-4.43521651748e-03
1.25258193239e-03
-4.36958477113e-03
9.03188318136e-04
-3.95826160260e-03
8.50737599422e-04
-3.57023554717e-03
1.13531615494e-03
-2.82644923870e-03
-3.21242658596e-03
2.57055265127e-03
-3.45480685623e-03
2.75774972944e-03
-3.74278496489e-03
2.93865270795e-03
-4.03273744932e-03
3.09923027596e-03
-4.31486421636e-03
3.24642464098e-03
-4.62023416518e-03
3.40763557127e-03
-4.87495157924e-03
3.62061799741e-03
-5.18028218608e-03
3.78946002878e-03
-5.47663697244e-03
3.92957854289e-03
-5.71430575080e-03
4.11217404812e-03
4.35157252338e-03
-4.90374184250e-03
4.86122769569e-03
-5.06970538783e-03
5.23964687688e-03
-4.41452921385e-03
5.18831481595e-03
-3.43062110984e-03
4.54778651162e-03
-2.11967398561e-03

</DataArray>
</CellData>
</Piece>
</UnstructuredGrid>
</VTKFile>
