<?xml version="1.0"?>
<VTKFile type="UnstructuredGrid" version="0.1" byte_order="LittleEndian">
<!--This file was created by meshio v5.3.5-->
<UnstructuredGrid>
<Piece NumberOfPoints="132" NumberOfCells="108">
<Points>
<DataArray type="Float64" Name="Points" NumberOfComponents="3" format="ascii">
1.39393398282e+03
1.39393398282e+03
0.00000000000e+00
1.41179535368e+03
1.41179535368e+03
0.00000000000e+00
1.43232233047e+03
1.43232233047e+03
0.00000000000e+00
1.45342838492e+03
1.45342838492e+03
0.00000000000e+00
1.47071067812e+03
1.47071067812e+03
0.00000000000e+00
1.47071067812e+03
1.47071067812e+03
0.00000000000e+00
1.48193258519e+03
1.48193258519e+03
0.00000000000e+00
1.49342724784e+03
1.49342724784e+03
0.00000000000e+00
1.49342724784e+03
1.49342724784e+03
0.00000000000e+00
1.50904698282e+03
1.50904698282e+03
0.00000000000e+00
1.52763241449e+03
1.52763241449e+03
0.00000000000e+00
1.54974663251e+03
1.54974663251e+03
0.00000000000e+00
1.57790632484e+03
1.57790632484e+03
0.00000000000e+00
1.60606601718e+03
1.60606601718e+03
0.00000000000e+00
1.39393398282e+03
1.39393398282e+03
0.00000000000e+00
1.41179535368e+03
1.41179535368e+03
0.00000000000e+00
1.43232233047e+03
1.43232233047e+03
0.00000000000e+00
1.45342838492e+03
1.45342838492e+03
0.00000000000e+00
1.47071067812e+03
1.47071067812e+03
0.00000000000e+00
1.47071067812e+03
1.47071067812e+03
0.00000000000e+00
1.48193258519e+03
1.48193258519e+03
0.00000000000e+00
1.49342724784e+03
1.49342724784e+03
0.00000000000e+00
1.49342724784e+03
1.49342724784e+03
0.00000000000e+00
1.50904698282e+03
1.50904698282e+03
0.00000000000e+00
1.52763241449e+03
1.52763241449e+03
0.00000000000e+00
1.54974663251e+03
1.54974663251e+03
0.00000000000e+00
1.57790632484e+03
1.57790632484e+03
0.00000000000e+00
1.60606601718e+03
1.60606601718e+03
0.00000000000e+00
1.53858192988e+03
1.44259748515e+03
0.00000000000e+00
1.52114931535e+03
1.44981831051e+03
0.00000000000e+00
1.50464630400e+03
1.45665408163e+03
0.00000000000e+00
1.48715643064e+03
1.46389862438e+03
0.00000000000e+00
1.47071067812e+03
1.47071067812e+03
0.00000000000e+00
1.47071067812e+03
1.47071067812e+03
0.00000000000e+00
1.45304681743e+03
1.47802728878e+03
0.00000000000e+00
1.43658747974e+03
1.48484496968e+03
0.00000000000e+00
1.42125052293e+03
1.49119774519e+03
0.00000000000e+00
1.42125052293e+03
1.49119774519e+03
0.00000000000e+00
1.40130004629e+03
1.49946150319e+03
0.00000000000e+00
1.38324876479e+03
1.50693858881e+03
0.00000000000e+00
1.36953298920e+03
1.51261984908e+03
0.00000000000e+00
1.35689390814e+03
1.51785512787e+03
0.00000000000e+00
1.34524700666e+03
1.52267943242e+03
0.00000000000e+00
1.33447013049e+03
1.52714336069e+03
0.00000000000e+00
1.32076403469e+03
1.53282061146e+03
0.00000000000e+00
1.30333253839e+03
1.54004097364e+03
0.00000000000e+00
1.26141807012e+03
1.55740251485e+03
0.00000000000e+00
1.53858192988e+03
1.44259748515e+03
0.00000000000e+00
1.52114931535e+03
1.44981831051e+03
0.00000000000e+00
1.50464630400e+03
1.45665408163e+03
0.00000000000e+00
1.48715643064e+03
1.46389862438e+03
0.00000000000e+00
1.47071067812e+03
1.47071067812e+03
0.00000000000e+00
1.47071067812e+03
1.47071067812e+03
0.00000000000e+00
1.45304681743e+03
1.47802728878e+03
0.00000000000e+00
1.43658747974e+03
1.48484496968e+03
0.00000000000e+00
1.42125052293e+03
1.49119774519e+03
0.00000000000e+00
1.42125052293e+03
1.49119774519e+03
0.00000000000e+00
1.40130004629e+03
1.49946150319e+03
0.00000000000e+00
1.38324876479e+03
1.50693858881e+03
0.00000000000e+00
1.36953298920e+03
1.51261984908e+03
0.00000000000e+00
1.35689390814e+03
1.51785512787e+03
0.00000000000e+00
1.34524700666e+03
1.52267943242e+03
0.00000000000e+00
1.33447013049e+03
1.52714336069e+03
0.00000000000e+00
1.32076403469e+03
1.53282061146e+03
0.00000000000e+00
1.30333253839e+03
1.54004097364e+03
0.00000000000e+00
1.26141807012e+03
1.55740251485e+03
0.00000000000e+00
1.35049190148e+03
1.38676982764e+03
0.00000000000e+00
1.36888437097e+03
1.41391404339e+03
0.00000000000e+00
1.38587121221e+03
1.43898378642e+03
0.00000000000e+00
1.39965561239e+03
1.45932726084e+03
0.00000000000e+00
1.41134230515e+03
1.47657486917e+03
0.00000000000e+00
1.42125052293e+03
1.49119774519e+03
0.00000000000e+00
1.42125052293e+03
1.49119774519e+03
0.00000000000e+00
1.42793393353e+03
1.50106134396e+03
0.00000000000e+00
1.43470544167e+03
1.51105495999e+03
0.00000000000e+00
1.43470544167e+03
1.51105495999e+03
0.00000000000e+00
1.44544778660e+03
1.52690886850e+03
0.00000000000e+00
1.45918158042e+03
1.54717765638e+03
0.00000000000e+00
1.47673985439e+03
1.57309073877e+03
0.00000000000e+00
1.49775706075e+03
1.60410862815e+03
0.00000000000e+00
1.51877426711e+03
1.63512651754e+03
0.00000000000e+00
1.35049190148e+03
1.38676982764e+03
0.00000000000e+00
1.36888437097e+03
1.41391404339e+03
0.00000000000e+00
1.38587121221e+03
1.43898378642e+03
0.00000000000e+00
1.39965561239e+03
1.45932726084e+03
0.00000000000e+00
1.41134230515e+03
1.47657486917e+03
0.00000000000e+00
1.42125052293e+03
1.49119774519e+03
0.00000000000e+00
1.42125052293e+03
1.49119774519e+03
0.00000000000e+00
1.42793393353e+03
1.50106134396e+03
0.00000000000e+00
1.43470544167e+03
1.51105495999e+03
0.00000000000e+00
1.43470544167e+03
1.51105495999e+03
0.00000000000e+00
1.44544778660e+03
1.52690886850e+03
0.00000000000e+00
1.45918158042e+03
1.54717765638e+03
0.00000000000e+00
1.47673985439e+03
1.57309073877e+03
0.00000000000e+00
1.49775706075e+03
1.60410862815e+03
0.00000000000e+00
1.51877426711e+03
1.63512651754e+03
0.00000000000e+00
1.35085784293e+03
1.53622518945e+03
0.00000000000e+00
1.36362541245e+03
1.53239248989e+03
0.00000000000e+00
1.37756419926e+03
1.52820820236e+03
0.00000000000e+00
1.39278164230e+03
1.52364007472e+03
0.00000000000e+00
1.40579827607e+03
1.51973260851e+03
0.00000000000e+00
1.41975046517e+03
1.51554429774e+03
0.00000000000e+00
1.43470544167e+03
1.51105495999e+03
0.00000000000e+00
1.43470544167e+03
1.51105495999e+03
0.00000000000e+00
1.44893214192e+03
1.50678424366e+03
0.00000000000e+00
1.46406634475e+03
1.50224110392e+03
0.00000000000e+00
1.47834301498e+03
1.49795538708e+03
0.00000000000e+00
1.49342724784e+03
1.49342724784e+03
0.00000000000e+00
1.49342724784e+03
1.49342724784e+03
0.00000000000e+00
1.51985841184e+03
1.48549287080e+03
0.00000000000e+00
1.54884647045e+03
1.47679093899e+03
0.00000000000e+00
1.56969205210e+03
1.47053329916e+03
0.00000000000e+00
1.59351857559e+03
1.46338080973e+03
0.00000000000e+00
1.63819068074e+03
1.44997068048e+03
0.00000000000e+00
1.35085784293e+03
1.53622518945e+03
0.00000000000e+00
1.36362541245e+03
1.53239248989e+03
0.00000000000e+00
1.37756419926e+03
1.52820820236e+03
0.00000000000e+00
1.39278164230e+03
1.52364007472e+03
0.00000000000e+00
1.40579827607e+03
1.51973260851e+03
0.00000000000e+00
1.41975046517e+03
1.51554429774e+03
0.00000000000e+00
1.43470544167e+03
1.51105495999e+03
0.00000000000e+00
1.43470544167e+03
1.51105495999e+03
0.00000000000e+00
1.44893214192e+03
1.50678424366e+03
0.00000000000e+00
1.46406634475e+03
1.50224110392e+03
0.00000000000e+00
1.47834301498e+03
1.49795538708e+03
0.00000000000e+00
1.49342724784e+03
1.49342724784e+03
0.00000000000e+00
1.49342724784e+03
1.49342724784e+03
0.00000000000e+00
1.51985841184e+03
1.48549287080e+03
0.00000000000e+00
1.54884647045e+03
1.47679093899e+03
0.00000000000e+00
1.56969205210e+03
1.47053329916e+03
0.00000000000e+00
1.59351857559e+03
1.46338080973e+03
0.00000000000e+00
1.63819068074e+03
1.44997068048e+03
0.00000000000e+00

</DataArray>
</Points>
<Cells>
<DataArray type="Int64" Name="connectivity" format="ascii">
0
1
1
2
2
3
3
4
5
6
6
7
8
9
9
10
10
11
11
12
12
13
14
15
15
16
16
17
17
18
19
20
20
21
22
23
23
24
24
25
25
26
26
27
28
29
29
30
30
31
31
32
33
34
34
35
35
36
37
38
38
39
39
40
40
41
41
42
42
43
43
44
44
45
45
46
47
48
48
49
49
50
50
51
52
53
53
54
54
55
56
57
57
58
58
59
59
60
60
61
61
62
62
63
63
64
64
65
66
67
67
68
68
69
69
70
70
71
72
73
73
74
75
76
76
77
77
78
78
79
79
80
81
82
82
83
83
84
84
85
85
86
87
88
88
89
90
91
91
92
92
93
93
94
94
95
96
97
97
98
98
99
99
100
100
101
101
102
103
104
104
105
105
106
106
107
108
109
109
110
110
111
111
112
112
113
114
115
115
116
116
117
117
118
118
119
119
120
121
122
122
123
123
124
124
125
126
127
127
128
128
129
129
130
130
131

</DataArray>
<DataArray type="Int64" Name="offsets" format="ascii">
2
4
6
8
10
12
14
16
18
20
22
24
26
28
30
32
34
36
38
40
42
44
46
48
50
52
54
56
58
60
62
64
66
68
70
72
74
76
78
80
82
84
86
88
90
92
94
96
98
100
102
104
106
108
110
112
114
116
118
120
122
124
126
128
130
132
134
136
138
140
142
144
146
148
150
152
154
156
158
160
162
164
166
168
170
172
174
176
178
180
182
184
186
188
190
192
194
196
198
200
202
204
206
208
210
212
214
216

</DataArray>
<DataArray type="Int64" Name="types" format="ascii">
3
3
3
3
3
3
3
3
3
3
3
3
3
3
3
3
3
3
3
3
3
3
3
3
3
3
3
3
3
3
3
3
3
3
3
3
3
3
3
3
3
3
3
3
3
3
3
3
3
3
3
3
3
3
3
3
3
3
3
3
3
3
3
3
3
3
3
3
3
3
3
3
3
3
3
3
3
3
3
3
3
3
3
3
3
3
3
3
3
3
3
3
3
3
3
3
3
3
3
3
3
3
3
3
3
3
3
3

</DataArray>
</Cells>
<PointData>
<DataArray type="Int64" Name="node_id" format="ascii">
0
1
2
3
4
5
6
7
8
9
10
11
12
13
14
15
16
17
18
19
20
21
22
23
24
25
26
27
0
1
2
3
4
5
6
7
8
9
10
11
12
13
14
15
16
17
18
19
20
21
22
23
24
25
26
27
28
29
30
31
32
33
34
35
36
37
0
1
2
3
4
5
6
7
8
9
10
11
12
13
14
15
16
17
18
19
20
21
22
23
24
25
26
27
28
29
0
1
2
3
4
5
6
7
8
9
10
11
12
13
14
15
16
17
18
19
20
21
22
23
24
25
26
27
28
29
30
31
32
33
34
35

</DataArray>
</PointData>
<CellData>
<DataArray type="Int64" Name="cell_id" format="ascii">
0
1
2
3
4
5
6
7
8
9
10
11
12
13
14
15
16
17
18
19
20
21
0
1
2
3
4
5
6
7
8
9
10
11
12
13
14
15
16
17
18
19
20
21
22
23
24
25
26
27
28
29
30
31
0
1
2
3
4
5
6
7
8
9
10
11
12
13
14
15
16
17
18
19
20
21
22
23
0
1
2
3
4
5
6
7
8
9
10
11
12
13
14
15
16
17
18
19
20
21
22
23
24
25
26
27
28
29

</DataArray>
<DataArray type="Int64" Name="grid_dim" format="ascii">
1
1
1
1
1
1
1
1
1
1
1
1
1
1
1
1
1
1
1
1
1
1
1
1
1
1
1
1
1
1
1
1
1
1
1
1
1
1
1
1
1
1
1
1
1
1
1
1
1
1
1
1
1
1
1
1
1
1
1
1
1
1
1
1
1
1
1
1
1
1
1
1
1
1
1
1
1
1
1
1
1
1
1
1
1
1
1
1
1
1
1
1
1
1
1
1
1
1
1
1
1
1
1
1
1
1
1
1

</DataArray>
<DataArray type="Float64" Name="interface_darcy_flux" format="ascii">
3.24214602332e-09
5.36052179767e-09
9.51344614040e-09
2.06071082866e-08
8.91080587260e-09
1.53286886019e-08
-9.21661140218e-08
-3.87026501869e-08
-3.08423843352e-08
-3.75005655307e-08
-6.64747123941e-08
3.41641739448e-10
6.10454638219e-10
2.70961013967e-09
1.00428884841e-08
-6.87728956241e-09
9.26582743565e-10
-7.12030064749e-08
-3.78269569345e-08
-3.45695488736e-08
-4.39023466788e-08
-7.00669158277e-08
2.98653430419e-10
-2.90057736280e-09
-6.80467038773e-09
-1.57486003325e-08
-9.06130878412e-09
-4.26483381878e-09
-7.04493798805e-09
-1.03426768797e-09
-8.43341896511e-11
-4.66311762031e-11
-1.15805591200e-10
-1.81128158921e-10
-2.45274084479e-10
-4.36256273091e-10
-7.05882279968e-10
-9.62796303500e-10
1.30090851122e-08
1.05643084082e-08
7.22007124500e-09
-4.11220398392e-09
1.27551907766e-08
7.68615507753e-09
3.54080744471e-10
5.97005522016e-09
4.21776027937e-09
3.42448039787e-09
3.43824151570e-09
3.53646483457e-09
3.36892337498e-09
4.35952745334e-09
5.83614604684e-09
1.15902280279e-08
3.81622681538e-09
3.29640808033e-09
2.76149129563e-09
3.39195400623e-09
7.37331419232e-09
4.39276667706e-09
1.14128411221e-08
-1.60993596860e-08
6.21009062942e-09
2.18900742161e-08
2.63959438574e-08
1.77426681225e-08
-3.54390938288e-10
1.30392754178e-10
5.62742633703e-10
8.48894692210e-10
1.35877466207e-09
-2.76494214938e-09
-1.04187170199e-11
-2.39928660769e-08
-9.38109708601e-09
-5.78130914199e-09
-5.62006003673e-09
-8.63798393109e-09
-3.76533098006e-09
-3.79724511721e-09
-3.72729213853e-09
-3.00260504947e-09
-2.53991325995e-09
-1.45637924052e-09
-1.43734981384e-08
-7.76880222890e-09
-4.83812280937e-09
-3.00429648984e-09
-2.47297116656e-08
-1.43796122255e-08
-8.93570991678e-09
-9.98597380931e-09
-2.47245284372e-08
3.99972081368e-09
5.26041521842e-09
6.98328910451e-09
7.69923023271e-09
1.12777575445e-08
2.36358056830e-08
1.89957602580e-08
1.51410109171e-08
2.32789796149e-08
5.40773589059e-08
9.85880506769e-08
3.36288482997e-08
1.41775108413e-08
9.13063926892e-09
-7.65624977707e-10

</DataArray>
<DataArray type="Int64" Name="interface_id" format="ascii">
0
0
0
0
0
0
0
0
0
0
0
0
0
0
0
0
0
0
0
0
0
0
1
1
1
1
1
1
1
1
1
1
1
1
1
1
1
1
1
1
1
1
1
1
1
1
1
1
1
1
1
1
1
1
2
2
2
2
2
2
2
2
2
2
2
2
2
2
2
2
2
2
2
2
2
2
2
2
3
3
3
3
3
3
3
3
3
3
3
3
3
3
3
3
3
3
3
3
3
3
3
3
3
3
3
3
3
3

</DataArray>
<DataArray type="Int64" Name="is_mortar" format="ascii">
1
1
1
1
1
1
1
1
1
1
1
1
1
1
1
1
1
1
1
1
1
1
1
1
1
1
1
1
1
1
1
1
1
1
1
1
1
1
1
1
1
1
1
1
1
1
1
1
1
1
1
1
1
1
1
1
1
1
1
1
1
1
1
1
1
1
1
1
1
1
1
1
1
1
1
1
1
1
1
1
1
1
1
1
1
1
1
1
1
1
1
1
1
1
1
1
1
1
1
1
1
1
1
1
1
1
1
1

</DataArray>
<DataArray type="Int64" Name="mortar_side" format="ascii">
1
1
1
1
1
1
1
1
1
1
1
2
2
2
2
2
2
2
2
2
2
2
1
1
1
1
1
1
1
1
1
1
1
1
1
1
1
1
2
2
2
2
2
2
2
2
2
2
2
2
2
2
2
2
1
1
1
1
1
1
1
1
1
1
1
1
2
2
2
2
2
2
2
2
2
2
2
2
1
1
1
1
1
1
1
1
1
1
1
1
1
1
1
2
2
2
2
2
2
2
2
2
2
2
2
2
2
2

</DataArray>
<DataArray type="Float64" Name="u_interface" NumberOfComponents="2" format="ascii">
2.53082400166e-04
-1.21717139335e-02
2.92464098974e-03
-1.52886333885e-02
5.31031623477e-03
-1.93734157272e-02
8.14742300687e-03
-2.40701906955e-02
1.29362530203e-02
-2.81807076432e-02
1.73899699376e-02
-3.30059422548e-02
4.91258143475e-02
-4.91145762816e-02
4.88903344839e-02
-5.44650205874e-02
4.30796795680e-02
-5.22424038855e-02
3.36349007459e-02
-4.31492846377e-02
2.06673688247e-02
-2.41711784993e-02
-6.23704360338e-03
-1.11808477918e-02
-9.64545966552e-03
-1.09944307282e-02
-1.32248568012e-02
-1.11249240788e-02
-1.60367820803e-02
-1.09392237282e-02
-1.84592805546e-02
-9.64747825355e-03
-1.97369065447e-02
-8.84818840453e-03
-5.89636971746e-02
4.53610979636e-02
-5.92111283029e-02
4.71186941897e-02
-5.76709213323e-02
4.57062487694e-02
-5.13041077804e-02
3.91266412542e-02
-3.47885817394e-02
2.86978927114e-02
8.76460568026e-03
-3.86319630105e-02
8.33237681028e-03
-3.81114007298e-02
8.29712990955e-03
-3.48122096273e-02
9.44353244074e-03
-2.92038734403e-02
-1.77491190230e-02
-1.11208440567e-02
-1.83969176347e-02
-1.21257546757e-02
-1.89830268719e-02
-1.29334992037e-02
-9.89286981223e-03
3.01044034459e-03
-9.72739557654e-03
2.50326832042e-03
-8.63749921428e-03
2.57451206589e-03
-8.18095322836e-03
2.77263620756e-03
-7.87412521302e-03
3.03429322912e-03
-7.65709730578e-03
3.40232982039e-03
-7.54222743333e-03
3.89332776137e-03
-7.49335154064e-03
4.72221462425e-03
-8.29335148691e-03
6.91089635410e-03
8.76460568026e-03
-3.86319630105e-02
8.33237681028e-03
-3.81114007298e-02
8.29712990955e-03
-3.48122096273e-02
9.44353244074e-03
-2.92038734403e-02
-1.77491190232e-02
-1.11208440566e-02
-1.83969176347e-02
-1.21257546757e-02
-1.89830268719e-02
-1.29334992037e-02
-2.76941974249e-02
1.25672634338e-02
-2.84832136068e-02
1.25725192611e-02
-2.99249817289e-02
1.40751353971e-02
-3.00914043388e-02
1.72399430271e-02
-2.90458893078e-02
2.07360331463e-02
-2.76078863946e-02
2.18615134038e-02
-2.69190075574e-02
2.10259751718e-02
-2.62179221165e-02
1.97977590533e-02
-2.29544094010e-02
1.79867790181e-02
-4.62399944366e-03
-9.24715775132e-03
-9.11392692439e-03
-1.20689479468e-02
-1.33055750732e-02
-1.28869376342e-02
-1.63030510445e-02
-1.30569995892e-02
-1.81805414209e-02
-1.30798331825e-02
-2.02216376783e-02
-1.34778371272e-02
-2.14558162764e-02
-1.32021045192e-02
-4.84470150044e-02
3.61010422332e-02
-4.90687875621e-02
3.89617869617e-02
-4.75875038392e-02
4.22267689531e-02
-4.19736495227e-02
4.40853370976e-02
-3.07206179710e-02
4.31930480201e-02
-4.25113836413e-03
1.16559474646e-03
-6.05182632844e-03
2.55134083333e-03
-7.16265614350e-03
2.74719693671e-03
-8.10609361015e-03
2.89203313802e-03
-9.45366208629e-03
3.06602736394e-03
-2.78551154583e-02
1.32070533594e-02
-2.83561589705e-02
1.34214374464e-02
-4.84470150044e-02
3.61010422332e-02
-4.90687875621e-02
3.89617869617e-02
-4.75875038392e-02
4.22267689531e-02
-4.19736495227e-02
4.40853370976e-02
-3.26234014898e-02
4.09133444292e-02
-2.66361797805e-02
1.94264403014e-02
-2.69346733003e-02
1.54313361047e-02
-2.80251504368e-02
1.28542055065e-02
-2.86475602151e-02
1.22243523493e-02
-2.87841462444e-02
1.25341839424e-02
-2.86866171325e-02
1.32306653407e-02
-2.15392911852e-02
-1.27661625591e-02
-2.10707365124e-02
-1.18003555818e-02
-2.07985026633e-02
-1.04970531979e-02
-2.04628258925e-02
-9.08678784144e-03
1.97520139223e-02
-4.41582984873e-02
1.29318517080e-02
-4.36331090129e-02
9.34107190933e-03
-3.95041983291e-02
8.76766825733e-03
-3.56312835299e-02
1.15350058904e-02
-2.82335429911e-02
-3.22714069223e-02
2.55854393557e-02
-3.47129817502e-02
2.74331090377e-02
-3.76043699741e-02
2.92128732895e-02
-4.05088513228e-02
3.07861961176e-02
-4.33310414863e-02
3.22213596668e-02
-4.63756535443e-02
3.37846390176e-02
-4.88718014917e-02
3.58508581630e-02
-5.18839390424e-02
3.75435949916e-02
-5.48216378803e-02
3.89621218820e-02
-5.71838428771e-02
4.08132813770e-02
4.32142130688e-02
-4.87102468949e-02
4.82684464642e-02
-5.04888327762e-02
5.21452692858e-02
-4.41379489114e-02
5.17073203109e-02
-3.43665312521e-02
4.53894731777e-02
-2.12826696021e-02

</DataArray>
</CellData>
</Piece>
</UnstructuredGrid>
</VTKFile>
