<?xml version="1.0"?>
<VTKFile type="UnstructuredGrid" version="0.1" byte_order="LittleEndian">
<!--This file was created by meshio v5.3.5-->
<UnstructuredGrid>
<Piece NumberOfPoints="66" NumberOfCells="54">
<Points>
<DataArray type="Float64" Name="Points" NumberOfComponents="3" format="ascii">
1.39393398282e+03
1.39393398282e+03
0.00000000000e+00
1.41179535368e+03
1.41179535368e+03
0.00000000000e+00
1.43232233047e+03
1.43232233047e+03
0.00000000000e+00
1.45342838492e+03
1.45342838492e+03
0.00000000000e+00
1.47071067812e+03
1.47071067812e+03
0.00000000000e+00
1.47071067812e+03
1.47071067812e+03
0.00000000000e+00
1.48193258519e+03
1.48193258519e+03
0.00000000000e+00
1.49342724784e+03
1.49342724784e+03
0.00000000000e+00
1.49342724784e+03
1.49342724784e+03
0.00000000000e+00
1.50904698282e+03
1.50904698282e+03
0.00000000000e+00
1.52763241449e+03
1.52763241449e+03
0.00000000000e+00
1.54974663251e+03
1.54974663251e+03
0.00000000000e+00
1.57790632484e+03
1.57790632484e+03
0.00000000000e+00
1.60606601718e+03
1.60606601718e+03
0.00000000000e+00
1.53858192988e+03
1.44259748515e+03
-3.17609274809e-14
1.52114931535e+03
1.44981831051e+03
-2.75711842631e-14
1.50464630400e+03
1.45665408163e+03
-2.36048612666e-14
1.48715643064e+03
1.46389862438e+03
-1.94013564997e-14
1.47071067812e+03
1.47071067812e+03
-1.54487950524e-14
1.47071067812e+03
1.47071067812e+03
-1.54487950524e-14
1.45304681743e+03
1.47802728878e+03
-1.12034742825e-14
1.43658747974e+03
1.48484496968e+03
-7.24764778577e-15
1.42125052293e+03
1.49119774519e+03
-3.56157357826e-15
1.42125052293e+03
1.49119774519e+03
-3.56157357826e-15
1.40130004629e+03
1.49946150319e+03
1.23331097877e-15
1.38324876479e+03
1.50693858881e+03
5.57174421368e-15
1.36953298920e+03
1.51261984908e+03
8.86818478458e-15
1.35689390814e+03
1.51785512787e+03
1.19058532910e-14
1.34524700666e+03
1.52267943242e+03
1.47050620056e-14
1.33447013049e+03
1.52714336069e+03
1.72951694016e-14
1.32076403469e+03
1.53282061146e+03
2.05892835364e-14
1.30333253839e+03
1.54004097364e+03
2.47787580011e-14
1.26141807012e+03
1.55740251485e+03
3.48524539966e-14
1.35049190148e+03
1.38676982764e+03
0.00000000000e+00
1.36888437097e+03
1.41391404339e+03
0.00000000000e+00
1.38587121221e+03
1.43898378642e+03
0.00000000000e+00
1.39965561239e+03
1.45932726084e+03
0.00000000000e+00
1.41134230515e+03
1.47657486917e+03
0.00000000000e+00
1.42125052293e+03
1.49119774519e+03
0.00000000000e+00
1.42125052293e+03
1.49119774519e+03
0.00000000000e+00
1.42793393353e+03
1.50106134396e+03
0.00000000000e+00
1.43470544167e+03
1.51105495999e+03
0.00000000000e+00
1.43470544167e+03
1.51105495999e+03
0.00000000000e+00
1.44544778660e+03
1.52690886850e+03
0.00000000000e+00
1.45918158042e+03
1.54717765638e+03
0.00000000000e+00
1.47673985439e+03
1.57309073877e+03
0.00000000000e+00
1.49775706075e+03
1.60410862815e+03
0.00000000000e+00
1.51877426711e+03
1.63512651754e+03
0.00000000000e+00
1.35085784293e+03
1.53622518945e+03
0.00000000000e+00
1.36362541245e+03
1.53239248989e+03
0.00000000000e+00
1.37756419926e+03
1.52820820236e+03
0.00000000000e+00
1.39278164230e+03
1.52364007472e+03
0.00000000000e+00
1.40579827607e+03
1.51973260851e+03
0.00000000000e+00
1.41975046517e+03
1.51554429774e+03
0.00000000000e+00
1.43470544167e+03
1.51105495999e+03
0.00000000000e+00
1.43470544167e+03
1.51105495999e+03
0.00000000000e+00
1.44893214192e+03
1.50678424366e+03
0.00000000000e+00
1.46406634475e+03
1.50224110392e+03
0.00000000000e+00
1.47834301498e+03
1.49795538708e+03
0.00000000000e+00
1.49342724784e+03
1.49342724784e+03
0.00000000000e+00
1.49342724784e+03
1.49342724784e+03
0.00000000000e+00
1.51985841184e+03
1.48549287080e+03
0.00000000000e+00
1.54884647045e+03
1.47679093899e+03
0.00000000000e+00
1.56969205210e+03
1.47053329916e+03
0.00000000000e+00
1.59351857559e+03
1.46338080973e+03
0.00000000000e+00
1.63819068074e+03
1.44997068048e+03
0.00000000000e+00

</DataArray>
</Points>
<Cells>
<DataArray type="Int64" Name="connectivity" format="ascii">
0
1
1
2
2
3
3
4
5
6
6
7
8
9
9
10
10
11
11
12
12
13
14
15
15
16
16
17
17
18
19
20
20
21
21
22
23
24
24
25
25
26
26
27
27
28
28
29
29
30
30
31
31
32
33
34
34
35
35
36
36
37
37
38
39
40
40
41
42
43
43
44
44
45
45
46
46
47
48
49
49
50
50
51
51
52
52
53
53
54
55
56
56
57
57
58
58
59
60
61
61
62
62
63
63
64
64
65

</DataArray>
<DataArray type="Int64" Name="offsets" format="ascii">
2
4
6
8
10
12
14
16
18
20
22
24
26
28
30
32
34
36
38
40
42
44
46
48
50
52
54
56
58
60
62
64
66
68
70
72
74
76
78
80
82
84
86
88
90
92
94
96
98
100
102
104
106
108

</DataArray>
<DataArray type="Int64" Name="types" format="ascii">
3
3
3
3
3
3
3
3
3
3
3
3
3
3
3
3
3
3
3
3
3
3
3
3
3
3
3
3
3
3
3
3
3
3
3
3
3
3
3
3
3
3
3
3
3
3
3
3
3
3
3
3
3
3

</DataArray>
</Cells>
<PointData>
<DataArray type="Int64" Name="node_id" format="ascii">
0
1
2
3
4
5
6
7
8
9
10
11
12
13
0
1
2
3
4
5
6
7
8
9
10
11
12
13
14
15
16
17
18
0
1
2
3
4
5
6
7
8
9
10
11
12
13
14
0
1
2
3
4
5
6
7
8
9
10
11
12
13
14
15
16
17

</DataArray>
</PointData>
<CellData>
<DataArray type="Float64" Name="aperture" format="ascii">
1.03950526055e-03
1.09486681062e-03
1.16048926505e-03
1.23556561609e-03
1.32610864926e-03
1.40697671473e-03
2.41974531849e-03
2.47039576886e-03
2.39351751419e-03
2.17285006731e-03
1.75996779810e-03
1.00000000000e-03
1.00000000000e-03
1.00000000000e-03
1.00000000000e-03
1.00000000000e-03
1.00000000000e-03
1.00000000000e-03
1.02067272988e-03
1.02163647136e-03
1.02429928703e-03
1.04640620883e-03
1.07598223901e-03
1.08562508654e-03
1.07497843631e-03
1.05876579792e-03
1.03973156293e-03
1.04942646047e-03
1.05587633671e-03
1.04189609383e-03
1.02733081219e-03
1.01939276934e-03
1.22092224753e-03
1.21492651358e-03
1.00000000000e-03
1.00000000000e-03
1.00000000000e-03
1.00000000000e-03
1.00174209558e-03
1.04024572317e-03
1.08667607635e-03
1.12080893594e-03
1.13455514453e-03
1.13764919548e-03
1.13725768491e-03
1.38573933370e-03
1.38198040320e-03
1.37316857977e-03
1.36908694789e-03
1.02408895360e-03
1.03602793451e-03
1.07606551333e-03
1.13122045871e-03
1.15902792879e-03

</DataArray>
<DataArray type="Int64" Name="cell_id" format="ascii">
0
1
2
3
4
5
6
7
8
9
10
0
1
2
3
4
5
6
7
8
9
10
11
12
13
14
15
0
1
2
3
4
5
6
7
8
9
10
11
0
1
2
3
4
5
6
7
8
9
10
11
12
13
14

</DataArray>
<DataArray type="Float64" Name="contact_traction" NumberOfComponents="2" format="ascii">
0.00000000000e+00
0.00000000000e+00
0.00000000000e+00
0.00000000000e+00
0.00000000000e+00
0.00000000000e+00
0.00000000000e+00
0.00000000000e+00
0.00000000000e+00
0.00000000000e+00
0.00000000000e+00
0.00000000000e+00
0.00000000000e+00
0.00000000000e+00
0.00000000000e+00
0.00000000000e+00
0.00000000000e+00
0.00000000000e+00
0.00000000000e+00
0.00000000000e+00
0.00000000000e+00
0.00000000000e+00
1.93602224658e+04
-3.72169326927e+04
1.48700668325e+04
-4.43306326136e+04
3.42555223138e+03
-3.58382149485e+04
-1.72343909116e+03
-7.72043311814e+03
-7.35483078060e+03
-9.14800457473e+03
-5.92859630154e+03
-1.30158603189e+04
-4.98741132098e+03
-1.38295398649e+04
-4.30958157987e+03
-4.30958157987e+03
-6.08739139216e+03
-6.08739139216e+03
-2.91280469386e+02
-2.91280469386e+02
0.00000000000e+00
0.00000000000e+00
0.00000000000e+00
0.00000000000e+00
0.00000000000e+00
0.00000000000e+00
0.00000000000e+00
0.00000000000e+00
0.00000000000e+00
0.00000000000e+00
0.00000000000e+00
0.00000000000e+00
0.00000000000e+00
0.00000000000e+00
0.00000000000e+00
0.00000000000e+00
0.00000000000e+00
0.00000000000e+00
0.00000000000e+00
0.00000000000e+00
1.83797285458e+03
-1.83797285458e+03
0.00000000000e+00
0.00000000000e+00
0.00000000000e+00
0.00000000000e+00
1.31498301435e+04
-4.17782938796e+04
1.16971447117e+04
-4.88039486322e+04
8.71996130111e+02
-5.31548695309e+04
-1.51897352268e+04
-4.55339102093e+04
-2.35767029123e+04
-2.35767029123e+04
0.00000000000e+00
0.00000000000e+00
0.00000000000e+00
0.00000000000e+00
0.00000000000e+00
0.00000000000e+00
0.00000000000e+00
0.00000000000e+00
0.00000000000e+00
0.00000000000e+00
0.00000000000e+00
0.00000000000e+00
0.00000000000e+00
0.00000000000e+00
0.00000000000e+00
0.00000000000e+00
0.00000000000e+00
0.00000000000e+00
0.00000000000e+00
0.00000000000e+00
4.28073648446e+04
-4.28073648446e+04
1.40850085545e+04
-1.40850085545e+04
0.00000000000e+00
0.00000000000e+00
0.00000000000e+00
0.00000000000e+00
0.00000000000e+00
0.00000000000e+00

</DataArray>
<DataArray type="Int64" Name="grid_dim" format="ascii">
1
1
1
1
1
1
1
1
1
1
1
1
1
1
1
1
1
1
1
1
1
1
1
1
1
1
1
1
1
1
1
1
1
1
1
1
1
1
1
1
1
1
1
1
1
1
1
1
1
1
1
1
1
1

</DataArray>
<DataArray type="Int64" Name="is_mortar" format="ascii">
0
0
0
0
0
0
0
0
0
0
0
0
0
0
0
0
0
0
0
0
0
0
0
0
0
0
0
0
0
0
0
0
0
0
0
0
0
0
0
0
0
0
0
0
0
0
0
0
0
0
0
0
0
0

</DataArray>
<DataArray type="Int64" Name="mortar_side" format="ascii">
0
0
0
0
0
0
0
0
0
0
0
0
0
0
0
0
0
0
0
0
0
0
0
0
0
0
0
0
0
0
0
0
0
0
0
0
0
0
0
0
0
0
0
0
0
0
0
0
0
0
0
0
0
0

</DataArray>
<DataArray type="Float64" Name="pressure" format="ascii">
-5.24660449046e+03
-5.24647348274e+03
-5.22538523439e+03
-5.18123075052e+03
1.37961315374e+04
1.38319041788e+04
1.00000000000e+05
9.97446306300e+04
9.95063400755e+04
9.92594359390e+04
9.90485295531e+04
1.66019753852e+04
1.65632647777e+04
1.65006293936e+04
1.64298358930e+04
1.87509865264e+03
1.85112857664e+03
1.82241504779e+03
-4.58262821548e+03
-4.59630874624e+03
-4.61023423658e+03
-4.62299374906e+03
-4.63316600557e+03
-4.63933694322e+03
-4.64268277646e+03
-4.64299413838e+03
-4.63984553697e+03
-6.18659938012e+03
-6.16959185463e+03
-6.13632296157e+03
-6.10060046323e+03
-6.07087276481e+03
-4.77593457503e+02
-4.63682241332e+02
2.60159153140e+04
2.61746729217e+04
2.63737602241e+04
2.65347206677e+04
2.65961054781e+04
2.07487933162e+02
2.10840605591e+02
2.21619963124e+02
2.40905772351e+02
2.65757622091e+02
2.96647598276e+02
1.48158824625e+04
1.48454026794e+04
1.48950984830e+04
1.49550852202e+04
4.14766328827e+04
4.12172910961e+04
4.09688351943e+04
4.07865556347e+04
4.05947655777e+04

</DataArray>
<DataArray type="Float64" Name="specific_volume" format="ascii">
1.03950526055e-03
1.09486681062e-03
1.16048926505e-03
1.23556561609e-03
1.32610864926e-03
1.40697671473e-03
2.41974531849e-03
2.47039576886e-03
2.39351751419e-03
2.17285006731e-03
1.75996779810e-03
1.00000000000e-03
1.00000000000e-03
1.00000000000e-03
1.00000000000e-03
1.00000000000e-03
1.00000000000e-03
1.00000000000e-03
1.02067272988e-03
1.02163647136e-03
1.02429928703e-03
1.04640620883e-03
1.07598223901e-03
1.08562508654e-03
1.07497843631e-03
1.05876579792e-03
1.03973156293e-03
1.04942646047e-03
1.05587633671e-03
1.04189609383e-03
1.02733081219e-03
1.01939276934e-03
1.22092224753e-03
1.21492651358e-03
1.00000000000e-03
1.00000000000e-03
1.00000000000e-03
1.00000000000e-03
1.00174209558e-03
1.04024572317e-03
1.08667607635e-03
1.12080893594e-03
1.13455514453e-03
1.13764919548e-03
1.13725768491e-03
1.38573933370e-03
1.38198040320e-03
1.37316857977e-03
1.36908694789e-03
1.02408895360e-03
1.03602793451e-03
1.07606551333e-03
1.13122045871e-03
1.15902792879e-03

</DataArray>
<DataArray type="Int64" Name="states" format="ascii">
2
2
2
2
2
2
2
2
2
2
2
0
0
0
0
0
0
0
1
1
1
2
2
2
2
2
2
2
2
2
2
1
2
2
0
0
0
0
1
2
2
2
2
2
2
2
2
2
2
1
1
2
2
2

</DataArray>
<DataArray type="Int64" Name="subdomain_id" format="ascii">
1
1
1
1
1
1
1
1
1
1
1
2
2
2
2
2
2
2
2
2
2
2
2
2
2
2
2
3
3
3
3
3
3
3
3
3
3
3
3
4
4
4
4
4
4
4
4
4
4
4
4
4
4
4

</DataArray>
</CellData>
</Piece>
</UnstructuredGrid>
</VTKFile>
