<?xml version="1.0"?>
<VTKFile type="UnstructuredGrid" version="0.1" byte_order="LittleEndian">
<!--This file was created by meshio v5.3.5-->
<UnstructuredGrid>
<Piece NumberOfPoints="66" NumberOfCells="54">
<Points>
<DataArray type="Float64" Name="Points" NumberOfComponents="3" format="ascii">
1.39393398282e+03
1.39393398282e+03
0.00000000000e+00
1.41179535368e+03
1.41179535368e+03
0.00000000000e+00
1.43232233047e+03
1.43232233047e+03
0.00000000000e+00
1.45342838492e+03
1.45342838492e+03
0.00000000000e+00
1.47071067812e+03
1.47071067812e+03
0.00000000000e+00
1.47071067812e+03
1.47071067812e+03
0.00000000000e+00
1.48193258519e+03
1.48193258519e+03
0.00000000000e+00
1.49342724784e+03
1.49342724784e+03
0.00000000000e+00
1.49342724784e+03
1.49342724784e+03
0.00000000000e+00
1.50904698282e+03
1.50904698282e+03
0.00000000000e+00
1.52763241449e+03
1.52763241449e+03
0.00000000000e+00
1.54974663251e+03
1.54974663251e+03
0.00000000000e+00
1.57790632484e+03
1.57790632484e+03
0.00000000000e+00
1.60606601718e+03
1.60606601718e+03
0.00000000000e+00
1.53858192988e+03
1.44259748515e+03
-3.17609274809e-14
1.52114931535e+03
1.44981831051e+03
-2.75711842631e-14
1.50464630400e+03
1.45665408163e+03
-2.36048612666e-14
1.48715643064e+03
1.46389862438e+03
-1.94013564997e-14
1.47071067812e+03
1.47071067812e+03
-1.54487950524e-14
1.47071067812e+03
1.47071067812e+03
-1.54487950524e-14
1.45304681743e+03
1.47802728878e+03
-1.12034742825e-14
1.43658747974e+03
1.48484496968e+03
-7.24764778577e-15
1.42125052293e+03
1.49119774519e+03
-3.56157357826e-15
1.42125052293e+03
1.49119774519e+03
-3.56157357826e-15
1.40130004629e+03
1.49946150319e+03
1.23331097877e-15
1.38324876479e+03
1.50693858881e+03
5.57174421368e-15
1.36953298920e+03
1.51261984908e+03
8.86818478458e-15
1.35689390814e+03
1.51785512787e+03
1.19058532910e-14
1.34524700666e+03
1.52267943242e+03
1.47050620056e-14
1.33447013049e+03
1.52714336069e+03
1.72951694016e-14
1.32076403469e+03
1.53282061146e+03
2.05892835364e-14
1.30333253839e+03
1.54004097364e+03
2.47787580011e-14
1.26141807012e+03
1.55740251485e+03
3.48524539966e-14
1.35049190148e+03
1.38676982764e+03
0.00000000000e+00
1.36888437097e+03
1.41391404339e+03
0.00000000000e+00
1.38587121221e+03
1.43898378642e+03
0.00000000000e+00
1.39965561239e+03
1.45932726084e+03
0.00000000000e+00
1.41134230515e+03
1.47657486917e+03
0.00000000000e+00
1.42125052293e+03
1.49119774519e+03
0.00000000000e+00
1.42125052293e+03
1.49119774519e+03
0.00000000000e+00
1.42793393353e+03
1.50106134396e+03
0.00000000000e+00
1.43470544167e+03
1.51105495999e+03
0.00000000000e+00
1.43470544167e+03
1.51105495999e+03
0.00000000000e+00
1.44544778660e+03
1.52690886850e+03
0.00000000000e+00
1.45918158042e+03
1.54717765638e+03
0.00000000000e+00
1.47673985439e+03
1.57309073877e+03
0.00000000000e+00
1.49775706075e+03
1.60410862815e+03
0.00000000000e+00
1.51877426711e+03
1.63512651754e+03
0.00000000000e+00
1.35085784293e+03
1.53622518945e+03
0.00000000000e+00
1.36362541245e+03
1.53239248989e+03
0.00000000000e+00
1.37756419926e+03
1.52820820236e+03
0.00000000000e+00
1.39278164230e+03
1.52364007472e+03
0.00000000000e+00
1.40579827607e+03
1.51973260851e+03
0.00000000000e+00
1.41975046517e+03
1.51554429774e+03
0.00000000000e+00
1.43470544167e+03
1.51105495999e+03
0.00000000000e+00
1.43470544167e+03
1.51105495999e+03
0.00000000000e+00
1.44893214192e+03
1.50678424366e+03
0.00000000000e+00
1.46406634475e+03
1.50224110392e+03
0.00000000000e+00
1.47834301498e+03
1.49795538708e+03
0.00000000000e+00
1.49342724784e+03
1.49342724784e+03
0.00000000000e+00
1.49342724784e+03
1.49342724784e+03
0.00000000000e+00
1.51985841184e+03
1.48549287080e+03
0.00000000000e+00
1.54884647045e+03
1.47679093899e+03
0.00000000000e+00
1.56969205210e+03
1.47053329916e+03
0.00000000000e+00
1.59351857559e+03
1.46338080973e+03
0.00000000000e+00
1.63819068074e+03
1.44997068048e+03
0.00000000000e+00

</DataArray>
</Points>
<Cells>
<DataArray type="Int64" Name="connectivity" format="ascii">
0
1
1
2
2
3
3
4
5
6
6
7
8
9
9
10
10
11
11
12
12
13
14
15
15
16
16
17
17
18
19
20
20
21
21
22
23
24
24
25
25
26
26
27
27
28
28
29
29
30
30
31
31
32
33
34
34
35
35
36
36
37
37
38
39
40
40
41
42
43
43
44
44
45
45
46
46
47
48
49
49
50
50
51
51
52
52
53
53
54
55
56
56
57
57
58
58
59
60
61
61
62
62
63
63
64
64
65

</DataArray>
<DataArray type="Int64" Name="offsets" format="ascii">
2
4
6
8
10
12
14
16
18
20
22
24
26
28
30
32
34
36
38
40
42
44
46
48
50
52
54
56
58
60
62
64
66
68
70
72
74
76
78
80
82
84
86
88
90
92
94
96
98
100
102
104
106
108

</DataArray>
<DataArray type="Int64" Name="types" format="ascii">
3
3
3
3
3
3
3
3
3
3
3
3
3
3
3
3
3
3
3
3
3
3
3
3
3
3
3
3
3
3
3
3
3
3
3
3
3
3
3
3
3
3
3
3
3
3
3
3
3
3
3
3
3
3

</DataArray>
</Cells>
<PointData>
<DataArray type="Int64" Name="node_id" format="ascii">
0
1
2
3
4
5
6
7
8
9
10
11
12
13
0
1
2
3
4
5
6
7
8
9
10
11
12
13
14
15
16
17
18
0
1
2
3
4
5
6
7
8
9
10
11
12
13
14
0
1
2
3
4
5
6
7
8
9
10
11
12
13
14
15
16
17

</DataArray>
</PointData>
<CellData>
<DataArray type="Float64" Name="aperture" format="ascii">
6.28986027591e-03
1.29248632344e-02
1.99389109233e-02
2.73858112009e-02
3.63049668685e-02
4.43347776907e-02
1.44235216488e-01
1.49269810970e-01
1.41501589606e-01
1.19238814043e-01
7.75973574691e-02
1.00000000000e-03
1.00000000000e-03
1.00000000000e-03
1.00000000000e-03
1.00000000000e-03
1.00000000000e-03
1.00000000000e-03
3.01708009652e-03
3.12523403118e-03
3.47882363173e-03
5.98128202553e-03
9.25219184630e-03
1.04192254527e-02
9.41332955416e-03
7.76240400196e-03
5.62223733307e-03
6.53226693175e-03
6.66614537979e-03
4.68438046147e-03
3.16057247056e-03
2.83228247717e-03
2.22880725717e-02
2.16467296470e-02
1.00000000000e-03
1.00000000000e-03
1.00000000000e-03
1.00000000000e-03
1.29645034376e-03
5.27872975431e-03
1.02586309987e-02
1.39137718645e-02
1.53677913488e-02
1.56734558773e-02
1.56002414499e-02
3.97057142482e-02
3.94011989764e-02
3.85886543653e-02
3.82352506882e-02
3.38598737741e-03
4.59355355065e-03
8.86875440676e-03
1.45571448809e-02
1.73910487612e-02

</DataArray>
<DataArray type="Int64" Name="cell_id" format="ascii">
0
1
2
3
4
5
6
7
8
9
10
0
1
2
3
4
5
6
7
8
9
10
11
12
13
14
15
0
1
2
3
4
5
6
7
8
9
10
11
0
1
2
3
4
5
6
7
8
9
10
11
12
13
14

</DataArray>
<DataArray type="Float64" Name="contact_traction" NumberOfComponents="2" format="ascii">
0.00000000000e+00
0.00000000000e+00
0.00000000000e+00
0.00000000000e+00
0.00000000000e+00
0.00000000000e+00
0.00000000000e+00
0.00000000000e+00
0.00000000000e+00
0.00000000000e+00
0.00000000000e+00
0.00000000000e+00
0.00000000000e+00
0.00000000000e+00
0.00000000000e+00
0.00000000000e+00
0.00000000000e+00
0.00000000000e+00
0.00000000000e+00
0.00000000000e+00
0.00000000000e+00
0.00000000000e+00
1.91645252284e+06
-3.40803753662e+06
1.48322367109e+06
-4.11653944379e+06
3.52209293289e+05
-3.28080479064e+06
-1.49060937987e+05
-4.78736508128e+05
-7.19528900843e+05
-9.68871250656e+05
-5.84338627921e+05
-1.30596698561e+06
-5.87433862672e+05
-1.44688098880e+06
-4.35351073449e+05
-4.35351073449e+05
-6.40351183271e+05
-6.40351183271e+05
0.00000000000e+00
0.00000000000e+00
0.00000000000e+00
0.00000000000e+00
0.00000000000e+00
0.00000000000e+00
0.00000000000e+00
0.00000000000e+00
0.00000000000e+00
0.00000000000e+00
0.00000000000e+00
0.00000000000e+00
0.00000000000e+00
0.00000000000e+00
0.00000000000e+00
0.00000000000e+00
0.00000000000e+00
0.00000000000e+00
0.00000000000e+00
0.00000000000e+00
0.00000000000e+00
0.00000000000e+00
4.71144453316e+05
-4.71144453316e+05
0.00000000000e+00
0.00000000000e+00
0.00000000000e+00
0.00000000000e+00
1.25355141088e+06
-3.80346674433e+06
1.13067129822e+06
-4.54465019187e+06
5.91866162406e+04
-4.98754286682e+06
-1.64244106122e+06
-4.21765589702e+06
-2.07585744982e+06
-2.07585744982e+06
0.00000000000e+00
0.00000000000e+00
0.00000000000e+00
0.00000000000e+00
0.00000000000e+00
0.00000000000e+00
0.00000000000e+00
0.00000000000e+00
0.00000000000e+00
0.00000000000e+00
0.00000000000e+00
0.00000000000e+00
0.00000000000e+00
0.00000000000e+00
0.00000000000e+00
0.00000000000e+00
0.00000000000e+00
0.00000000000e+00
0.00000000000e+00
0.00000000000e+00
4.29304901281e+06
-4.29304901281e+06
1.36939846069e+06
-1.36939846069e+06
0.00000000000e+00
0.00000000000e+00
0.00000000000e+00
0.00000000000e+00
0.00000000000e+00
0.00000000000e+00

</DataArray>
<DataArray type="Int64" Name="grid_dim" format="ascii">
1
1
1
1
1
1
1
1
1
1
1
1
1
1
1
1
1
1
1
1
1
1
1
1
1
1
1
1
1
1
1
1
1
1
1
1
1
1
1
1
1
1
1
1
1
1
1
1
1
1
1
1
1
1

</DataArray>
<DataArray type="Int64" Name="is_mortar" format="ascii">
0
0
0
0
0
0
0
0
0
0
0
0
0
0
0
0
0
0
0
0
0
0
0
0
0
0
0
0
0
0
0
0
0
0
0
0
0
0
0
0
0
0
0
0
0
0
0
0
0
0
0
0
0
0

</DataArray>
<DataArray type="Int64" Name="mortar_side" format="ascii">
0
0
0
0
0
0
0
0
0
0
0
0
0
0
0
0
0
0
0
0
0
0
0
0
0
0
0
0
0
0
0
0
0
0
0
0
0
0
0
0
0
0
0
0
0
0
0
0
0
0
0
0
0
0

</DataArray>
<DataArray type="Float64" Name="pressure" format="ascii">
-3.19629750426e+05
-3.19627385744e+05
-3.19625775916e+05
-3.19624797261e+05
1.54690400218e+06
1.54690419522e+06
1.00000000000e+07
9.99999989048e+06
9.99999978635e+06
9.99999965747e+06
9.99999946476e+06
2.02273472003e+06
2.01980175869e+06
2.01517197101e+06
2.01045844339e+06
3.23827314745e+05
3.22891734454e+05
3.21313437214e+05
-3.97458482649e+05
-3.97507695284e+05
-3.97553700541e+05
-3.97576673736e+05
-3.97580973337e+05
-3.97582062775e+05
-3.97582793566e+05
-3.97583411290e+05
-3.97583893511e+05
-5.14445376678e+05
-5.14437488305e+05
-5.14414041811e+05
-5.14345060278e+05
-5.14251443088e+05
7.12641678403e+04
7.12644056914e+04
3.01476947099e+06
3.02582621243e+06
3.04102341013e+06
3.05311079380e+06
3.05590443741e+06
1.04740257804e+05
1.04741965647e+05
1.04742928560e+05
1.04743836800e+05
1.04744792286e+05
1.04745906962e+05
1.66827298215e+06
1.66827314675e+06
1.66827339369e+06
1.66827368643e+06
4.15581543031e+06
4.15536303133e+06
4.15518314057e+06
4.15516343463e+06
4.15515680490e+06

</DataArray>
<DataArray type="Float64" Name="specific_volume" format="ascii">
6.28986027591e-03
1.29248632344e-02
1.99389109233e-02
2.73858112009e-02
3.63049668685e-02
4.43347776907e-02
1.44235216488e-01
1.49269810970e-01
1.41501589606e-01
1.19238814043e-01
7.75973574691e-02
1.00000000000e-03
1.00000000000e-03
1.00000000000e-03
1.00000000000e-03
1.00000000000e-03
1.00000000000e-03
1.00000000000e-03
3.01708009652e-03
3.12523403118e-03
3.47882363173e-03
5.98128202553e-03
9.25219184630e-03
1.04192254527e-02
9.41332955416e-03
7.76240400196e-03
5.62223733307e-03
6.53226693175e-03
6.66614537979e-03
4.68438046147e-03
3.16057247056e-03
2.83228247717e-03
2.22880725717e-02
2.16467296470e-02
1.00000000000e-03
1.00000000000e-03
1.00000000000e-03
1.00000000000e-03
1.29645034376e-03
5.27872975431e-03
1.02586309987e-02
1.39137718645e-02
1.53677913488e-02
1.56734558773e-02
1.56002414499e-02
3.97057142482e-02
3.94011989764e-02
3.85886543653e-02
3.82352506882e-02
3.38598737741e-03
4.59355355065e-03
8.86875440676e-03
1.45571448809e-02
1.73910487612e-02

</DataArray>
<DataArray type="Int64" Name="states" format="ascii">
2
2
2
2
2
2
2
2
2
2
2
0
0
0
0
0
0
0
1
1
2
2
2
2
2
2
2
2
2
2
2
1
2
2
0
0
0
0
1
2
2
2
2
2
2
2
2
2
2
1
1
2
2
2

</DataArray>
<DataArray type="Int64" Name="subdomain_id" format="ascii">
1
1
1
1
1
1
1
1
1
1
1
2
2
2
2
2
2
2
2
2
2
2
2
2
2
2
2
3
3
3
3
3
3
3
3
3
3
3
3
4
4
4
4
4
4
4
4
4
4
4
4
4
4
4

</DataArray>
</CellData>
</Piece>
</UnstructuredGrid>
</VTKFile>
